       N       E                     dE             d eps       ncg     rms          rms(c)
DAV:   1     0.457910777160E+04    0.45791E+04   -0.28985E+05 17580   0.151E+03
DAV:   2    -0.414363163624E+03   -0.49935E+04   -0.48153E+04 21370   0.368E+02
DAV:   3    -0.850711651507E+03   -0.43635E+03   -0.43079E+03 20370   0.129E+02
DAV:   4    -0.866947867803E+03   -0.16236E+02   -0.16146E+02 25610   0.263E+01
DAV:   5    -0.867316622152E+03   -0.36875E+00   -0.36764E+00 22700   0.356E+00    0.618E+01
RMM:   6    -0.758210893794E+03    0.10911E+03   -0.43461E+02 23298   0.328E+01    0.171E+01
RMM:   7    -0.759151606404E+03   -0.94071E+00   -0.33519E+01 20363   0.212E+01    0.109E+01
RMM:   8    -0.759318827362E+03   -0.16722E+00   -0.10548E+01 23981   0.592E+00    0.220E+00
RMM:   9    -0.759358022157E+03   -0.39195E-01   -0.12167E+00 24618   0.156E+00    0.111E+00
RMM:  10    -0.759345460863E+03    0.12561E-01   -0.24301E-01 24145   0.775E-01    0.478E-01
RMM:  11    -0.759342957547E+03    0.25033E-02   -0.39380E-02 23680   0.376E-01    0.213E-01
RMM:  12    -0.759343270179E+03   -0.31263E-03   -0.78898E-03 22259   0.157E-01    0.902E-02
RMM:  13    -0.759343303945E+03   -0.33766E-04   -0.33485E-03 21125   0.117E-01    0.645E-02
RMM:  14    -0.759343180631E+03    0.12331E-03   -0.78915E-04 14989   0.628E-02    0.217E-02
RMM:  15    -0.759343194016E+03   -0.13385E-04   -0.30598E-04 11731   0.574E-02
    1 T=     1. E= -.75932321E+03 F= -.75934319E+03 E0= -.75934319E+03  EK= 0.19983E-01 SP= 0.00E+00 SK= 0.00E+00
       N       E                     dE             d eps       ncg     rms          rms(c)
DAV:   1    -0.759499603883E+03   -0.15642E+00   -0.39015E-01 18850   0.123E+00    0.124E-01
RMM:   2    -0.759500508794E+03   -0.90491E-03   -0.16391E-02 23377   0.307E-01    0.760E-02
RMM:   3    -0.759500453443E+03    0.55351E-04   -0.15925E-03 14880   0.738E-02    0.560E-02
RMM:   4    -0.759500254863E+03    0.19858E-03   -0.55506E-04 13616   0.602E-02    0.196E-02
RMM:   5    -0.759500259923E+03   -0.50596E-05   -0.20716E-04 11067   0.414E-02
    2 T=    12. E= -.75932440E+03 F= -.75950026E+03 E0= -.75950026E+03  EK= 0.17586E+00 SP= 0.00E+00 SK= 0.00E+00
       N       E                     dE             d eps       ncg     rms          rms(c)
DAV:   1    -0.759788442611E+03   -0.28819E+00   -0.31335E-01 23110   0.136E+00    0.121E-01
RMM:   2    -0.759791146141E+03   -0.27035E-02   -0.30373E-02 22576   0.350E-01    0.777E-02
RMM:   3    -0.759791368623E+03   -0.22248E-03   -0.28987E-03 14130   0.186E-01    0.564E-02
RMM:   4    -0.759791347851E+03    0.20772E-04   -0.25673E-04 11361   0.660E-02
    3 T=    32. E= -.75932638E+03 F= -.75979135E+03 E0= -.75979135E+03  EK= 0.46497E+00 SP= 0.00E+00 SK= 0.00E+00
       N       E                     dE             d eps       ncg     rms          rms(c)
DAV:   1    -0.760168957814E+03   -0.37759E+00   -0.72083E-02 31350   0.127E+00    0.123E-01
RMM:   2    -0.760172352689E+03   -0.33949E-02   -0.39372E-02 24436   0.290E-01    0.907E-02
RMM:   3    -0.760172297328E+03    0.55360E-04   -0.17592E-03 17751   0.751E-02    0.435E-02
RMM:   4    -0.760172309847E+03   -0.12519E-04   -0.51446E-04 13109   0.760E-02
    4 T=    59. E= -.75932976E+03 F= -.76017231E+03 E0= -.76017231E+03  EK= 0.84255E+00 SP= 0.00E+00 SK= 0.00E+00
       N       E                     dE             d eps       ncg     rms          rms(c)
DAV:   1    -0.760584109936E+03   -0.41181E+00   -0.72584E-02 32290   0.147E+00    0.189E-01
RMM:   2    -0.760586556176E+03   -0.24462E-02   -0.33089E-02 24055   0.283E-01    0.992E-02
RMM:   3    -0.760586438691E+03    0.11749E-03   -0.16456E-03 16479   0.943E-02    0.490E-02
RMM:   4    -0.760586437498E+03    0.11923E-05   -0.74500E-04 15301   0.678E-02
    5 T=    87. E= -.75933332E+03 F= -.76058644E+03 E0= -.76058644E+03  EK= 0.12531E+01 SP= 0.00E+00 SK= 0.00E+00
       N       E                     dE             d eps       ncg     rms          rms(c)
DAV:   1    -0.760972719055E+03   -0.38628E+00   -0.79486E-02 30940   0.173E+00    0.111E-01
RMM:   2    -0.760976155458E+03   -0.34364E-02   -0.39315E-02 24306   0.293E-01    0.917E-02
RMM:   3    -0.760976052551E+03    0.10291E-03   -0.14539E-03 16827   0.773E-02    0.549E-02
RMM:   4    -0.760976002570E+03    0.49980E-04   -0.59665E-04 13750   0.729E-02
    6 T=   114. E= -.75933711E+03 F= -.76097600E+03 E0= -.76097600E+03  EK= 0.16389E+01 SP= 0.00E+00 SK= 0.00E+00
       N       E                     dE             d eps       ncg     rms          rms(c)
DAV:   1    -0.761285268824E+03   -0.30922E+00   -0.93601E-02 30860   0.192E+00    0.152E-01
RMM:   2    -0.761288317655E+03   -0.30488E-02   -0.39859E-02 24093   0.302E-01    0.953E-02
RMM:   3    -0.761288194224E+03    0.12343E-03   -0.20330E-03 18246   0.990E-02    0.458E-02
RMM:   4    -0.761288180046E+03    0.14178E-04   -0.68291E-04 15112   0.660E-02
    7 T=   136. E= -.75933924E+03 F= -.76128818E+03 E0= -.76128818E+03  EK= 0.19489E+01 SP= 0.00E+00 SK= 0.00E+00
       N       E                     dE             d eps       ncg     rms          rms(c)
DAV:   1    -0.761486977383E+03   -0.19878E+00   -0.95676E-02 30490   0.205E+00    0.128E-01
RMM:   2    -0.761490959149E+03   -0.39818E-02   -0.45857E-02 24052   0.339E-01    0.114E-01
RMM:   3    -0.761490760211E+03    0.19894E-03   -0.16845E-03 17703   0.878E-02    0.751E-02
RMM:   4    -0.761490646111E+03    0.11410E-03   -0.14450E-03 18169   0.804E-02    0.120E-02
RMM:   5    -0.761490669248E+03   -0.23137E-04   -0.23816E-04 11260   0.378E-02
    8 T=   150. E= -.75933878E+03 F= -.76149067E+03 E0= -.76149067E+03  EK= 0.21519E+01 SP= 0.00E+00 SK= 0.00E+00
       N       E                     dE             d eps       ncg     rms          rms(c)
DAV:   1    -0.761577454262E+03   -0.86808E-01   -0.65772E-02 30190   0.207E+00    0.103E-01
RMM:   2    -0.761581012650E+03   -0.35584E-02   -0.38439E-02 23398   0.305E-01    0.793E-02
RMM:   3    -0.761581059331E+03   -0.46681E-04   -0.18635E-03 17100   0.110E-01    0.520E-02
RMM:   4    -0.761581050488E+03    0.88432E-05   -0.10386E-03 16674   0.687E-02    0.126E-02
RMM:   5    -0.761581067521E+03   -0.17033E-04   -0.17544E-04 10540   0.419E-02
    9 T=   156. E= -.75933740E+03 F= -.76158107E+03 E0= -.76158107E+03  EK= 0.22437E+01 SP= 0.00E+00 SK= 0.00E+00
       N       E                     dE             d eps       ncg     rms          rms(c)
DAV:   1    -0.761580308201E+03    0.74229E-03   -0.46750E-02 30410   0.194E+00    0.702E-02
RMM:   2    -0.761583321518E+03   -0.30133E-02   -0.31197E-02 23567   0.280E-01    0.578E-02
RMM:   3    -0.761583376466E+03   -0.54948E-04   -0.12153E-03 15971   0.837E-02    0.429E-02
RMM:   4    -0.761583356431E+03    0.20035E-04   -0.32762E-04 11625   0.526E-02
   10 T=   157. E= -.75933402E+03 F= -.76158336E+03 E0= -.76158336E+03  EK= 0.22493E+01 SP= 0.00E+00 SK= 0.00E+00
       N       E                     dE             d eps       ncg     rms          rms(c)
DAV:   1    -0.761543969599E+03    0.39407E-01   -0.39437E-02 30240   0.173E+00    0.108E-01
RMM:   2    -0.761545893110E+03   -0.19235E-02   -0.22537E-02 22376   0.241E-01    0.271E-02
RMM:   3    -0.761546054813E+03   -0.16170E-03   -0.14257E-03 14918   0.115E-01    0.174E-02
RMM:   4    -0.761546090681E+03   -0.35868E-04   -0.23666E-04 11155   0.484E-02
   11 T=   154. E= -.75933072E+03 F= -.76154609E+03 E0= -.76154609E+03  EK= 0.22154E+01 SP= 0.00E+00 SK= 0.00E+00
       N       E                     dE             d eps       ncg     rms          rms(c)
DAV:   1    -0.761520578719E+03    0.25476E-01   -0.27969E-02 30260   0.163E+00    0.506E-02
RMM:   2    -0.761522543297E+03   -0.19646E-02   -0.20156E-02 21417   0.237E-01    0.795E-02
RMM:   3    -0.761522674530E+03   -0.13123E-03   -0.15756E-03 14919   0.135E-01    0.651E-02
RMM:   4    -0.761522632403E+03    0.42127E-04   -0.30127E-04 11531   0.549E-02
   12 T=   153. E= -.75932781E+03 F= -.76152263E+03 E0= -.76152263E+03  EK= 0.21948E+01 SP= 0.00E+00 SK= 0.00E+00
       N       E                     dE             d eps       ncg     rms          rms(c)
DAV:   1    -0.761556619007E+03   -0.33944E-01   -0.28381E-02 30440   0.138E+00    0.103E-01
RMM:   2    -0.761557692289E+03   -0.10733E-02   -0.14056E-02 20666   0.194E-01    0.510E-02
RMM:   3    -0.761557817989E+03   -0.12570E-03   -0.16019E-03 15562   0.149E-01    0.289E-02
RMM:   4    -0.761557857082E+03   -0.39093E-04   -0.44895E-04 12712   0.611E-02
   13 T=   156. E= -.75932638E+03 F= -.76155786E+03 E0= -.76155786E+03  EK= 0.22315E+01 SP= 0.00E+00 SK= 0.00E+00
       N       E                     dE             d eps       ncg     rms          rms(c)
DAV:   1    -0.761670384170E+03   -0.11257E+00   -0.25891E-02 31120   0.136E+00    0.633E-02
RMM:   2    -0.761671965820E+03   -0.15817E-02   -0.17198E-02 18453   0.228E-01    0.119E-01
RMM:   3    -0.761672213045E+03   -0.24723E-03   -0.22584E-03 16528   0.211E-01    0.109E-01
RMM:   4    -0.761671992627E+03    0.22042E-03   -0.10215E-03 17012   0.840E-02    0.442E-02
RMM:   5    -0.761672026092E+03   -0.33465E-04   -0.10495E-03 17123   0.623E-02    0.262E-02
RMM:   6    -0.761672022503E+03    0.35891E-05   -0.14898E-04 10345   0.499E-02
   14 T=   163. E= -.75932677E+03 F= -.76167202E+03 E0= -.76167202E+03  EK= 0.23452E+01 SP= 0.00E+00 SK= 0.00E+00
       N       E                     dE             d eps       ncg     rms          rms(c)
DAV:   1    -0.761855549984E+03   -0.18352E+00   -0.15533E-02 30830   0.135E+00    0.418E-02
RMM:   2    -0.761856532315E+03   -0.98233E-03   -0.10218E-02 18698   0.172E-01    0.469E-02
RMM:   3    -0.761856757704E+03   -0.22539E-03   -0.15799E-03 15970   0.174E-01    0.380E-02
RMM:   4    -0.761856773798E+03   -0.16094E-04   -0.24295E-04 10988   0.585E-02
   15 T=   176. E= -.75932859E+03 F= -.76185677E+03 E0= -.76185677E+03  EK= 0.25282E+01 SP= 0.00E+00 SK= 0.00E+00
       N       E                     dE             d eps       ncg     rms          rms(c)
DAV:   1    -0.762079311381E+03   -0.22255E+00   -0.19409E-02 30570   0.141E+00    0.837E-02
RMM:   2    -0.762080148920E+03   -0.83754E-03   -0.10758E-02 19364   0.175E-01    0.312E-02
RMM:   3    -0.762080371259E+03   -0.22234E-03   -0.16001E-03 15701   0.168E-01    0.175E-02
RMM:   4    -0.762080413979E+03   -0.42720E-04   -0.23709E-04 10921   0.577E-02
   16 T=   192. E= -.75933093E+03 F= -.76208041E+03 E0= -.76208041E+03  EK= 0.27495E+01 SP= 0.00E+00 SK= 0.00E+00
       N       E                     dE             d eps       ncg     rms          rms(c)
DAV:   1    -0.762298953149E+03   -0.21858E+00   -0.17138E-02 31990   0.160E+00    0.523E-02
RMM:   2    -0.762300335948E+03   -0.13828E-02   -0.14582E-02 17780   0.209E-01    0.747E-02
RMM:   3    -0.762300572159E+03   -0.23621E-03   -0.19132E-03 16808   0.200E-01    0.620E-02
RMM:   4    -0.762300567202E+03    0.49576E-05   -0.30775E-04 11380   0.658E-02
   17 T=   207. E= -.75933344E+03 F= -.76230057E+03 E0= -.76230057E+03  EK= 0.29671E+01 SP= 0.00E+00 SK= 0.00E+00
       N       E                     dE             d eps       ncg     rms          rms(c)
DAV:   1    -0.762473502449E+03   -0.17293E+00   -0.21363E-02 30720   0.166E+00    0.854E-02
RMM:   2    -0.762474603919E+03   -0.11015E-02   -0.13283E-02 18955   0.204E-01    0.655E-02
RMM:   3    -0.762474835409E+03   -0.23149E-03   -0.21873E-03 16284   0.201E-01    0.414E-02
RMM:   4    -0.762474872256E+03   -0.36846E-04   -0.38345E-04 12087   0.687E-02
   18 T=   219. E= -.75933554E+03 F= -.76247487E+03 E0= -.76247487E+03  EK= 0.31393E+01 SP= 0.00E+00 SK= 0.00E+00
       N       E                     dE             d eps       ncg     rms          rms(c)
DAV:   1    -0.762569247950E+03   -0.94413E-01   -0.19350E-02 32510   0.182E+00    0.715E-02
RMM:   2    -0.762571224918E+03   -0.19770E-02   -0.21168E-02 17906   0.259E-01    0.121E-01
RMM:   3    -0.762571527600E+03   -0.30268E-03   -0.30866E-03 16897   0.256E-01    0.105E-01
RMM:   4    -0.762571497217E+03    0.30383E-04   -0.42260E-04 12395   0.793E-02
   19 T=   225. E= -.75933685E+03 F= -.76257150E+03 E0= -.76257150E+03  EK= 0.32346E+01 SP= 0.00E+00 SK= 0.00E+00
       N       E                     dE             d eps       ncg     rms          rms(c)
DAV:   1    -0.762573197271E+03   -0.16697E-02   -0.38145E-02 30960   0.178E+00    0.134E-01
RMM:   2    -0.762574923520E+03   -0.17262E-02   -0.23882E-02 20101   0.278E-01    0.123E-01
RMM:   3    -0.762575088515E+03   -0.16499E-03   -0.34911E-03 16802   0.243E-01    0.801E-02
RMM:   4    -0.762575103755E+03   -0.15240E-04   -0.10656E-03 16542   0.961E-02    0.354E-02
RMM:   5    -0.762575129895E+03   -0.26140E-04   -0.59012E-04 14474   0.485E-02
   20 T=   226. E= -.75933676E+03 F= -.76257513E+03 E0= -.76257513E+03  EK= 0.32384E+01 SP= 0.00E+00 SK= 0.00E+00
       N       E                     dE             d eps       ncg     rms          rms(c)
DAV:   1    -0.762485075524E+03    0.90028E-01   -0.26789E-02 33290   0.183E+00    0.862E-02
RMM:   2    -0.762487558117E+03   -0.24826E-02   -0.27184E-02 17693   0.296E-01    0.146E-01
RMM:   3    -0.762487873117E+03   -0.31500E-03   -0.37423E-03 17119   0.293E-01    0.119E-01
RMM:   4    -0.762487708361E+03    0.16476E-03   -0.10209E-03 16382   0.975E-02    0.680E-02
RMM:   5    -0.762487696709E+03    0.11652E-04   -0.12858E-03 17503   0.650E-02    0.256E-02
RMM:   6    -0.762487705271E+03   -0.85617E-05   -0.18590E-04 10938   0.542E-02
   21 T=   220. E= -.75933578E+03 F= -.76248771E+03 E0= -.76248771E+03  EK= 0.31519E+01 SP= 0.00E+00 SK= 0.00E+00
       N       E                     dE             d eps       ncg     rms          rms(c)
DAV:   1    -0.762322908938E+03    0.16479E+00   -0.18489E-02 32060   0.171E+00    0.543E-02
RMM:   2    -0.762324312799E+03   -0.14039E-02   -0.14611E-02 18431   0.217E-01    0.450E-02
RMM:   3    -0.762324661219E+03   -0.34842E-03   -0.26433E-03 16504   0.235E-01    0.346E-02
RMM:   4    -0.762324699264E+03   -0.38044E-04   -0.31187E-04 11484   0.707E-02
   22 T=   208. E= -.75933418E+03 F= -.76232470E+03 E0= -.76232470E+03  EK= 0.29905E+01 SP= 0.00E+00 SK= 0.00E+00
       N       E                     dE             d eps       ncg     rms          rms(c)
DAV:   1    -0.762109875791E+03    0.21479E+00   -0.20547E-02 32090   0.157E+00    0.961E-02
RMM:   2    -0.762111033474E+03   -0.11577E-02   -0.14789E-02 21806   0.200E-01    0.299E-02
RMM:   3    -0.762111215488E+03   -0.18201E-03   -0.15063E-03 14865   0.135E-01    0.155E-02
RMM:   4    -0.762111252074E+03   -0.36586E-04   -0.21437E-04 10983   0.579E-02
   23 T=   194. E= -.75933234E+03 F= -.76211125E+03 E0= -.76211125E+03  EK= 0.27789E+01 SP= 0.00E+00 SK= 0.00E+00
       N       E                     dE             d eps       ncg     rms          rms(c)
DAV:   1    -0.761875119557E+03    0.23610E+00   -0.19887E-02 31490   0.149E+00    0.476E-02
RMM:   2    -0.761876531904E+03   -0.14123E-02   -0.14739E-02 18323   0.213E-01    0.657E-02
RMM:   3    -0.761876804327E+03   -0.27242E-03   -0.23527E-03 16567   0.224E-01    0.553E-02
RMM:   4    -0.761876805321E+03   -0.99411E-06   -0.30158E-04 11380   0.675E-02
   24 T=   177. E= -.75933030E+03 F= -.76187681E+03 E0= -.76187681E+03  EK= 0.25465E+01 SP= 0.00E+00 SK= 0.00E+00
       N       E                     dE             d eps       ncg     rms          rms(c)
DAV:   1    -0.761651595100E+03    0.22521E+00   -0.19750E-02 31430   0.132E+00    0.596E-02
RMM:   2    -0.761652745576E+03   -0.11505E-02   -0.12869E-02 21139   0.187E-01    0.607E-02
RMM:   3    -0.761652872008E+03   -0.12643E-03   -0.14930E-03 14777   0.144E-01    0.439E-02
RMM:   4    -0.761652864575E+03    0.74330E-05   -0.32395E-04 11516   0.606E-02
   25 T=   162. E= -.75932901E+03 F= -.76165286E+03 E0= -.76165286E+03  EK= 0.23239E+01 SP= 0.00E+00 SK= 0.00E+00
       N       E                     dE             d eps       ncg     rms          rms(c)
DAV:   1    -0.761463260152E+03    0.18961E+00   -0.21135E-02 31400   0.127E+00    0.646E-02
RMM:   2    -0.761464585792E+03   -0.13256E-02   -0.14535E-02 18189   0.214E-01    0.975E-02
RMM:   3    -0.761464835969E+03   -0.25018E-03   -0.25497E-03 16761   0.239E-01    0.849E-02
RMM:   4    -0.761464771231E+03    0.64738E-04   -0.47876E-04 12692   0.762E-02
   26 T=   149. E= -.75932749E+03 F= -.76146477E+03 E0= -.76146477E+03  EK= 0.21373E+01 SP= 0.00E+00 SK= 0.00E+00
       N       E                     dE             d eps       ncg     rms          rms(c)
DAV:   1    -0.761331815254E+03    0.13302E+00   -0.30199E-02 31010   0.124E+00    0.111E-01
RMM:   2    -0.761332979637E+03   -0.11644E-02   -0.16803E-02 20791   0.230E-01    0.117E-01
RMM:   3    -0.761333027356E+03   -0.47718E-04   -0.22587E-03 16357   0.188E-01    0.822E-02
RMM:   4    -0.761332983739E+03    0.43617E-04   -0.13503E-03 18508   0.895E-02    0.155E-02
RMM:   5    -0.761333008893E+03   -0.25153E-04   -0.27030E-04 11630   0.374E-02
   27 T=   140. E= -.75932678E+03 F= -.76133301E+03 E0= -.76133301E+03  EK= 0.20062E+01 SP= 0.00E+00 SK= 0.00E+00
       N       E                     dE             d eps       ncg     rms          rms(c)
DAV:   1    -0.761267166738E+03    0.65817E-01   -0.18086E-02 31390   0.120E+00    0.644E-02
RMM:   2    -0.761268139117E+03   -0.97238E-03   -0.11445E-02 19015   0.192E-01    0.954E-02
RMM:   3    -0.761268321514E+03   -0.18240E-03   -0.18995E-03 16041   0.198E-01    0.798E-02
RMM:   4    -0.761268277883E+03    0.43631E-04   -0.32227E-04 11392   0.661E-02
   28 T=   135. E= -.75932687E+03 F= -.76126828E+03 E0= -.76126828E+03  EK= 0.19414E+01 SP= 0.00E+00 SK= 0.00E+00
       N       E                     dE             d eps       ncg     rms          rms(c)
DAV:   1    -0.761269450224E+03   -0.11287E-02   -0.20386E-02 31740   0.129E+00    0.963E-02
RMM:   2    -0.761270372160E+03   -0.92194E-03   -0.13616E-02 19482   0.209E-01    0.112E-01
RMM:   3    -0.761270480212E+03   -0.10805E-03   -0.21106E-03 16019   0.199E-01    0.855E-02
RMM:   4    -0.761270445834E+03    0.34379E-04   -0.83567E-04 16028   0.776E-02
   29 T=   135. E= -.75932783E+03 F= -.76127045E+03 E0= -.76127045E+03  EK= 0.19426E+01 SP= 0.00E+00 SK= 0.00E+00
       N       E                     dE             d eps       ncg     rms          rms(c)
DAV:   1    -0.761328979347E+03   -0.58499E-01   -0.32397E-02 31250   0.138E+00    0.116E-01
RMM:   2    -0.761330107448E+03   -0.11281E-02   -0.15771E-02 18164   0.224E-01    0.122E-01
RMM:   3    -0.761330134421E+03   -0.26973E-04   -0.20754E-03 16808   0.208E-01    0.930E-02
RMM:   4    -0.761330261491E+03   -0.12707E-03   -0.42797E-03 22320   0.116E-01    0.760E-02
RMM:   5    -0.761330118404E+03    0.14309E-03   -0.26641E-04 11266   0.396E-02    0.324E-02
RMM:   6    -0.761330103325E+03    0.15078E-04   -0.23831E-04 10726   0.336E-02
   30 T=   139. E= -.75932941E+03 F= -.76133010E+03 E0= -.76133010E+03  EK= 0.20007E+01 SP= 0.00E+00 SK= 0.00E+00
       N       E                     dE             d eps       ncg     rms          rms(c)
DAV:   1    -0.761429438556E+03   -0.99320E-01   -0.10652E-02 32050   0.153E+00    0.705E-02
RMM:   2    -0.761430562109E+03   -0.11236E-02   -0.13251E-02 18484   0.209E-01    0.101E-01
RMM:   3    -0.761430760382E+03   -0.19827E-03   -0.21532E-03 16478   0.209E-01    0.788E-02
RMM:   4    -0.761430735992E+03    0.24391E-04   -0.27082E-04 11048   0.657E-02
   31 T=   146. E= -.75933111E+03 F= -.76143074E+03 E0= -.76143074E+03  EK= 0.20996E+01 SP= 0.00E+00 SK= 0.00E+00
       N       E                     dE             d eps       ncg     rms          rms(c)
DAV:   1    -0.761549245142E+03   -0.11848E+00   -0.14165E-02 31690   0.161E+00    0.925E-02
RMM:   2    -0.761550183061E+03   -0.93792E-03   -0.12329E-02 19415   0.194E-01    0.680E-02
RMM:   3    -0.761550335083E+03   -0.15202E-03   -0.17331E-03 15996   0.173E-01    0.424E-02
RMM:   4    -0.761550352213E+03   -0.17131E-04   -0.25028E-04 10905   0.588E-02
   32 T=   155. E= -.75933319E+03 F= -.76155035E+03 E0= -.76155035E+03  EK= 0.22172E+01 SP= 0.00E+00 SK= 0.00E+00
       N       E                     dE             d eps       ncg     rms          rms(c)
DAV:   1    -0.761662788774E+03   -0.11245E+00   -0.13644E-02 32060   0.176E+00    0.101E-01
RMM:   2    -0.761664833753E+03   -0.20450E-02   -0.23548E-02 17765   0.272E-01    0.141E-01
RMM:   3    -0.761664948436E+03   -0.11468E-03   -0.26282E-03 17005   0.235E-01    0.109E-01
RMM:   4    -0.761664889828E+03    0.58608E-04   -0.36674E-04 11797   0.718E-02
   33 T=   162. E= -.75933523E+03 F= -.76166489E+03 E0= -.76166489E+03  EK= 0.23297E+01 SP= 0.00E+00 SK= 0.00E+00
       N       E                     dE             d eps       ncg     rms          rms(c)
DAV:   1    -0.761751055903E+03   -0.86107E-01   -0.31871E-02 31400   0.175E+00    0.135E-01
RMM:   2    -0.761752258974E+03   -0.12031E-02   -0.20064E-02 19186   0.258E-01    0.112E-01
RMM:   3    -0.761752408115E+03   -0.14914E-03   -0.31140E-03 16539   0.233E-01    0.744E-02
RMM:   4    -0.761752433012E+03   -0.24896E-04   -0.60658E-04 14629   0.790E-02
   34 T=   168. E= -.75933656E+03 F= -.76175243E+03 E0= -.76175243E+03  EK= 0.24159E+01 SP= 0.00E+00 SK= 0.00E+00
       N       E                     dE             d eps       ncg     rms          rms(c)
DAV:   1    -0.761796589732E+03   -0.44182E-01   -0.25218E-02 32760   0.191E+00    0.138E-01
RMM:   2    -0.761800261313E+03   -0.36716E-02   -0.41924E-02 17530   0.350E-01    0.179E-01
RMM:   3    -0.761800083912E+03    0.17740E-03   -0.22253E-03 17355   0.214E-01    0.138E-01
RMM:   4    -0.761799807953E+03    0.27596E-03   -0.18679E-03 20384   0.953E-02    0.459E-02
RMM:   5    -0.761799801189E+03    0.67645E-05   -0.53275E-04 16038   0.524E-02
   35 T=   172. E= -.75933752E+03 F= -.76179980E+03 E0= -.76179980E+03  EK= 0.24623E+01 SP= 0.00E+00 SK= 0.00E+00
       N       E                     dE             d eps       ncg     rms          rms(c)
DAV:   1    -0.761800949087E+03   -0.11411E-02   -0.25818E-02 31940   0.179E+00    0.978E-02
RMM:   2    -0.761802625167E+03   -0.16761E-02   -0.20028E-02 18191   0.246E-01    0.100E-01
RMM:   3    -0.761802674505E+03   -0.49338E-04   -0.17323E-03 16487   0.181E-01    0.703E-02
RMM:   4    -0.761802631060E+03    0.43445E-04   -0.61035E-04 14718   0.652E-02
   36 T=   172. E= -.75933724E+03 F= -.76180263E+03 E0= -.76180263E+03  EK= 0.24654E+01 SP= 0.00E+00 SK= 0.00E+00
       N       E                     dE             d eps       ncg     rms          rms(c)
DAV:   1    -0.761767510086E+03    0.35164E-01   -0.21831E-02 33120   0.174E+00    0.613E-02
RMM:   2    -0.761769386163E+03   -0.18761E-02   -0.20008E-02 17652   0.237E-01    0.116E-01
RMM:   3    -0.761769461551E+03   -0.75387E-04   -0.12778E-03 16556   0.153E-01    0.106E-01
RMM:   4    -0.761769246387E+03    0.21516E-03   -0.97518E-04 16510   0.702E-02    0.398E-02
RMM:   5    -0.761769261453E+03   -0.15065E-04   -0.62434E-04 15660   0.586E-02
   37 T=   170. E= -.75933656E+03 F= -.76176926E+03 E0= -.76176926E+03  EK= 0.24327E+01 SP= 0.00E+00 SK= 0.00E+00
       N       E                     dE             d eps       ncg     rms          rms(c)
DAV:   1    -0.761715569676E+03    0.53677E-01   -0.25536E-02 32040   0.158E+00    0.123E-01
RMM:   2    -0.761716933584E+03   -0.13639E-02   -0.18925E-02 17904   0.245E-01    0.106E-01
RMM:   3    -0.761717006938E+03   -0.73354E-04   -0.22685E-03 16801   0.210E-01    0.751E-02
RMM:   4    -0.761717001288E+03    0.56498E-05   -0.90037E-04 16314   0.728E-02
   38 T=   166. E= -.75933583E+03 F= -.76171700E+03 E0= -.76171700E+03  EK= 0.23812E+01 SP= 0.00E+00 SK= 0.00E+00
       N       E                     dE             d eps       ncg     rms          rms(c)
DAV:   1    -0.761667053216E+03    0.49954E-01   -0.24176E-02 32430   0.144E+00    0.997E-02
RMM:   2    -0.761668150345E+03   -0.10971E-02   -0.14644E-02 17900   0.207E-01    0.887E-02
RMM:   3    -0.761668165279E+03   -0.14934E-04   -0.14284E-03 16607   0.160E-01    0.572E-02
RMM:   4    -0.761668182754E+03   -0.17475E-04   -0.12795E-03 17842   0.732E-02    0.221E-02
RMM:   5    -0.761668188763E+03   -0.60082E-05   -0.15603E-04 10486   0.405E-02
   39 T=   163. E= -.75933484E+03 F= -.76166819E+03 E0= -.76166819E+03  EK= 0.23333E+01 SP= 0.00E+00 SK= 0.00E+00
       N       E                     dE             d eps       ncg     rms          rms(c)
DAV:   1    -0.761642244156E+03    0.25939E-01   -0.18450E-02 32660   0.135E+00    0.742E-02
RMM:   2    -0.761643495469E+03   -0.12513E-02   -0.14845E-02 17831   0.205E-01    0.724E-02
RMM:   3    -0.761643587720E+03   -0.92251E-04   -0.14013E-03 16546   0.163E-01    0.502E-02
RMM:   4    -0.761643570802E+03    0.16918E-04   -0.33226E-04 11579   0.547E-02
   40 T=   161. E= -.75933418E+03 F= -.76164357E+03 E0= -.76164357E+03  EK= 0.23094E+01 SP= 0.00E+00 SK= 0.00E+00
       N       E                     dE             d eps       ncg     rms          rms(c)
DAV:   1    -0.761654905000E+03   -0.11317E-01   -0.19128E-02 31440   0.130E+00    0.573E-02
RMM:   2    -0.761655925340E+03   -0.10203E-02   -0.11222E-02 18447   0.170E-01    0.471E-02
RMM:   3    -0.761656007302E+03   -0.81962E-04   -0.99743E-04 15555   0.126E-01
   41 T=   162. E= -.75933420E+03 F= -.76165601E+03 E0= -.76165601E+03  EK= 0.23218E+01 SP= 0.00E+00 SK= 0.00E+00
       N       E                     dE             d eps       ncg     rms          rms(c)
DAV:   1    -0.761702812673E+03   -0.46887E-01   -0.21675E-02 32830   0.140E+00    0.502E-02
RMM:   2    -0.761704479231E+03   -0.16666E-02   -0.17410E-02 17656   0.211E-01    0.997E-02
RMM:   3    -0.761704496479E+03   -0.17248E-04   -0.10391E-03 15798   0.134E-01    0.871E-02
RMM:   4    -0.761704433148E+03    0.63331E-04   -0.23102E-04 10801   0.455E-02
   42 T=   165. E= -.75933523E+03 F= -.76170443E+03 E0= -.76170443E+03  EK= 0.23692E+01 SP= 0.00E+00 SK= 0.00E+00
       N       E                     dE             d eps       ncg     rms          rms(c)
DAV:   1    -0.761773385331E+03   -0.68889E-01   -0.26276E-02 31510   0.153E+00    0.888E-02
RMM:   2    -0.761774986455E+03   -0.16011E-02   -0.18839E-02 17727   0.240E-01    0.115E-01
RMM:   3    -0.761775085878E+03   -0.99422E-04   -0.20560E-03 16722   0.203E-01    0.818E-02
RMM:   4    -0.761775056995E+03    0.28883E-04   -0.36281E-04 11797   0.629E-02
   43 T=   170. E= -.75933708E+03 F= -.76177506E+03 E0= -.76177506E+03  EK= 0.24380E+01 SP= 0.00E+00 SK= 0.00E+00
       N       E                     dE             d eps       ncg     rms          rms(c)
DAV:   1    -0.761844197189E+03   -0.69111E-01   -0.31066E-02 32870   0.168E+00    0.114E-01
RMM:   2    -0.761846747783E+03   -0.25506E-02   -0.29452E-02 17684   0.291E-01    0.155E-01
RMM:   3    -0.761846766245E+03   -0.18462E-04   -0.28012E-03 17018   0.239E-01    0.125E-01
RMM:   4    -0.761846624130E+03    0.14211E-03   -0.11966E-03 17790   0.843E-02    0.679E-02
RMM:   5    -0.761846586315E+03    0.37815E-04   -0.10163E-03 17348   0.593E-02    0.331E-02
RMM:   6    -0.761846587613E+03   -0.12988E-05   -0.21221E-04 10828   0.616E-02
   44 T=   175. E= -.75933831E+03 F= -.76184659E+03 E0= -.76184659E+03  EK= 0.25083E+01 SP= 0.00E+00 SK= 0.00E+00
       N       E                     dE             d eps       ncg     rms          rms(c)
DAV:   1    -0.761894899544E+03   -0.48313E-01   -0.18174E-02 32710   0.185E+00    0.112E-01
RMM:   2    -0.761896636021E+03   -0.17365E-02   -0.21668E-02 17942   0.263E-01    0.121E-01
RMM:   3    -0.761896798984E+03   -0.16296E-03   -0.27743E-03 16897   0.239E-01    0.935E-02
RMM:   4    -0.761896738838E+03    0.60146E-04   -0.60246E-04 14064   0.768E-02
   45 T=   178. E= -.75933925E+03 F= -.76189674E+03 E0= -.76189674E+03  EK= 0.25575E+01 SP= 0.00E+00 SK= 0.00E+00
       N       E                     dE             d eps       ncg     rms          rms(c)
DAV:   1    -0.761906958723E+03   -0.10160E-01   -0.19415E-02 31750   0.185E+00    0.101E-01
RMM:   2    -0.761908162066E+03   -0.12033E-02   -0.15967E-02 18684   0.217E-01    0.759E-02
RMM:   3    -0.761908323569E+03   -0.16150E-03   -0.20392E-03 16258   0.191E-01    0.481E-02
RMM:   4    -0.761908334285E+03   -0.10716E-04   -0.35186E-04 11805   0.609E-02
   46 T=   179. E= -.75933992E+03 F= -.76190833E+03 E0= -.76190833E+03  EK= 0.25684E+01 SP= 0.00E+00 SK= 0.00E+00
       N       E                     dE             d eps       ncg     rms          rms(c)
DAV:   1    -0.761871844572E+03    0.36479E-01   -0.20135E-02 33420   0.199E+00    0.944E-02
RMM:   2    -0.761874521015E+03   -0.26764E-02   -0.29997E-02 17698   0.298E-01    0.154E-01
RMM:   3    -0.761874555673E+03   -0.34657E-04   -0.23014E-03 17002   0.217E-01    0.123E-01
RMM:   4    -0.761874408780E+03    0.14689E-03   -0.51843E-04 13286   0.722E-02    0.921E-02
RMM:   5    -0.761874343828E+03    0.64952E-04   -0.20074E-03 20378   0.748E-02    0.301E-02
RMM:   6    -0.761874338598E+03    0.52299E-05   -0.18669E-04 11467   0.502E-02
   47 T=   177. E= -.75933998E+03 F= -.76187434E+03 E0= -.76187434E+03  EK= 0.25344E+01 SP= 0.00E+00 SK= 0.00E+00
       N       E                     dE             d eps       ncg     rms          rms(c)
DAV:   1    -0.761795941326E+03    0.78403E-01   -0.11781E-02 31850   0.189E+00    0.611E-02
RMM:   2    -0.761797292794E+03   -0.13515E-02   -0.14541E-02 18228   0.207E-01    0.674E-02
RMM:   3    -0.761797445130E+03   -0.15234E-03   -0.15644E-03 16439   0.175E-01    0.523E-02
RMM:   4    -0.761797401037E+03    0.44094E-04   -0.44023E-04 12592   0.628E-02
   48 T=   171. E= -.75933954E+03 F= -.76179740E+03 E0= -.76179740E+03  EK= 0.24579E+01 SP= 0.00E+00 SK= 0.00E+00
       N       E                     dE             d eps       ncg     rms          rms(c)
DAV:   1    -0.761687709546E+03    0.10974E+00   -0.12699E-02 32010   0.180E+00    0.753E-02
RMM:   2    -0.761688776258E+03   -0.10667E-02   -0.12315E-02 18006   0.191E-01    0.554E-02
RMM:   3    -0.761688926345E+03   -0.15009E-03   -0.14233E-03 16594   0.169E-01    0.384E-02
RMM:   4    -0.761688937493E+03   -0.11148E-04   -0.28464E-04 11114   0.560E-02
   49 T=   164. E= -.75933861E+03 F= -.76168894E+03 E0= -.76168894E+03  EK= 0.23503E+01 SP= 0.00E+00 SK= 0.00E+00
       N       E                     dE             d eps       ncg     rms          rms(c)
DAV:   1    -0.761564573449E+03    0.12435E+00   -0.12522E-02 31550   0.172E+00    0.733E-02
RMM:   2    -0.761565806366E+03   -0.12329E-02   -0.14161E-02 18140   0.213E-01    0.948E-02
RMM:   3    -0.761566028180E+03   -0.22181E-03   -0.22959E-03 16673   0.217E-01    0.727E-02
RMM:   4    -0.761566045390E+03   -0.17210E-04   -0.28895E-04 11242   0.642E-02
   50 T=   155. E= -.75933789E+03 F= -.76156605E+03 E0= -.76156605E+03  EK= 0.22282E+01 SP= 0.00E+00 SK= 0.00E+00
       N       E                     dE             d eps       ncg     rms          rms(c)
DAV:   1    -0.761445609235E+03    0.12042E+00   -0.20072E-02 31000   0.157E+00    0.106E-01
RMM:   2    -0.761446672720E+03   -0.10635E-02   -0.15760E-02 19732   0.228E-01    0.119E-01
RMM:   3    -0.761446759209E+03   -0.86490E-04   -0.23117E-03 16007   0.203E-01    0.884E-02
RMM:   4    -0.761446718246E+03    0.40963E-04   -0.84334E-04 15858   0.788E-02
   51 T=   147. E= -.75933730E+03 F= -.76144672E+03 E0= -.76144672E+03  EK= 0.21094E+01 SP= 0.00E+00 SK= 0.00E+00
       N       E                     dE             d eps       ncg     rms          rms(c)
DAV:   1    -0.761345738007E+03    0.10102E+00   -0.24984E-02 31540   0.155E+00    0.910E-02
RMM:   2    -0.761347495666E+03   -0.17577E-02   -0.20570E-02 17960   0.259E-01    0.142E-01
RMM:   3    -0.761347626147E+03   -0.13048E-03   -0.25239E-03 16850   0.235E-01    0.122E-01
RMM:   4    -0.761347471354E+03    0.15479E-03   -0.88775E-04 15847   0.822E-02    0.717E-02
RMM:   5    -0.761347482136E+03   -0.10782E-04   -0.16558E-03 18358   0.715E-02    0.442E-02
RMM:   6    -0.761347456832E+03    0.25304E-04   -0.25003E-04 12103   0.628E-02
   52 T=   140. E= -.75933670E+03 F= -.76134746E+03 E0= -.76134746E+03  EK= 0.20108E+01 SP= 0.00E+00 SK= 0.00E+00
       N       E                     dE             d eps       ncg     rms          rms(c)
DAV:   1    -0.761278523685E+03    0.68958E-01   -0.11230E-02 31710   0.141E+00    0.800E-02
RMM:   2    -0.761279524278E+03   -0.10006E-02   -0.13065E-02 19041   0.203E-01    0.898E-02
RMM:   3    -0.761279735721E+03   -0.21144E-03   -0.23622E-03 16280   0.217E-01    0.669E-02
RMM:   4    -0.761279706853E+03    0.28868E-04   -0.36158E-04 11807   0.717E-02
   53 T=   135. E= -.75933636E+03 F= -.76127971E+03 E0= -.76127971E+03  EK= 0.19433E+01 SP= 0.00E+00 SK= 0.00E+00
       N       E                     dE             d eps       ncg     rms          rms(c)
DAV:   1    -0.761249904549E+03    0.29831E-01   -0.14037E-02 31150   0.130E+00    0.659E-02
RMM:   2    -0.761250724443E+03   -0.81989E-03   -0.94112E-03 19681   0.172E-01    0.591E-02
RMM:   3    -0.761250829236E+03   -0.10479E-03   -0.13383E-03 15242   0.152E-01    0.404E-02
RMM:   4    -0.761250833624E+03   -0.43885E-05   -0.31640E-04 11378   0.553E-02
   54 T=   133. E= -.75933622E+03 F= -.76125083E+03 E0= -.76125083E+03  EK= 0.19146E+01 SP= 0.00E+00 SK= 0.00E+00
       N       E                     dE             d eps       ncg     rms          rms(c)
DAV:   1    -0.761261901036E+03   -0.11072E-01   -0.14910E-02 31940   0.134E+00    0.647E-02
RMM:   2    -0.761263288826E+03   -0.13878E-02   -0.15158E-02 17964   0.224E-01    0.127E-01
RMM:   3    -0.761263520032E+03   -0.23121E-03   -0.23901E-03 16716   0.232E-01    0.111E-01
RMM:   4    -0.761263524559E+03   -0.45272E-05   -0.24175E-04 10811   0.643E-02
   55 T=   134. E= -.75933634E+03 F= -.76126352E+03 E0= -.76126352E+03  EK= 0.19272E+01 SP= 0.00E+00 SK= 0.00E+00
       N       E                     dE             d eps       ncg     rms          rms(c)
DAV:   1    -0.761314485675E+03   -0.50966E-01   -0.31736E-02 29740   0.125E+00    0.190E-01
RMM:   2    -0.761314151953E+03    0.33372E-03   -0.17941E-02 22832   0.233E-01    0.115E-01
RMM:   3    -0.761313855028E+03    0.29692E-03   -0.16649E-03 17162   0.119E-01    0.463E-02
RMM:   4    -0.761313849731E+03    0.52967E-05   -0.50661E-04 13244   0.760E-02
   56 T=   138. E= -.75933681E+03 F= -.76131385E+03 E0= -.76131385E+03  EK= 0.19770E+01 SP= 0.00E+00 SK= 0.00E+00
       N       E                     dE             d eps       ncg     rms          rms(c)
DAV:   1    -0.761393470791E+03   -0.79616E-01   -0.24311E-02 32790   0.154E+00    0.217E-01
RMM:   2    -0.761393887588E+03   -0.41680E-03   -0.29558E-02 21669   0.296E-01    0.163E-01
RMM:   3    -0.761393581935E+03    0.30565E-03   -0.24134E-03 17294   0.176E-01    0.959E-02
RMM:   4    -0.761393557745E+03    0.24190E-04   -0.32152E-03 22687   0.119E-01    0.435E-02
RMM:   5    -0.761393508726E+03    0.49018E-04   -0.18208E-04 10448   0.317E-02
   57 T=   143. E= -.75933751E+03 F= -.76139351E+03 E0= -.76139351E+03  EK= 0.20560E+01 SP= 0.00E+00 SK= 0.00E+00
       N       E                     dE             d eps       ncg     rms          rms(c)
DAV:   1    -0.761490327499E+03   -0.96770E-01   -0.94335E-03 31740   0.144E+00    0.530E-02
RMM:   2    -0.761491172605E+03   -0.84511E-03   -0.97200E-03 18578   0.176E-01    0.606E-02
RMM:   3    -0.761491348936E+03   -0.17633E-03   -0.16387E-03 16168   0.183E-01    0.444E-02
RMM:   4    -0.761491352199E+03   -0.32633E-05   -0.21150E-04 10747   0.556E-02
   58 T=   150. E= -.75933833E+03 F= -.76149135E+03 E0= -.76149135E+03  EK= 0.21530E+01 SP= 0.00E+00 SK= 0.00E+00
       N       E                     dE             d eps       ncg     rms          rms(c)
DAV:   1    -0.761592050241E+03   -0.10070E+00   -0.11914E-02 31190   0.150E+00    0.674E-02
RMM:   2    -0.761592880909E+03   -0.83067E-03   -0.10327E-02 21276   0.170E-01    0.531E-02
RMM:   3    -0.761593000657E+03   -0.11975E-03   -0.12182E-03 14168   0.130E-01    0.332E-02
RMM:   4    -0.761593011517E+03   -0.10860E-04   -0.26138E-04 11027   0.556E-02
   59 T=   157. E= -.75933915E+03 F= -.76159301E+03 E0= -.76159301E+03  EK= 0.22539E+01 SP= 0.00E+00 SK= 0.00E+00
       N       E                     dE             d eps       ncg     rms          rms(c)
DAV:   1    -0.761681797098E+03   -0.88796E-01   -0.14134E-02 31520   0.164E+00    0.680E-02
RMM:   2    -0.761683086037E+03   -0.12889E-02   -0.14644E-02 18111   0.212E-01    0.927E-02
RMM:   3    -0.761683316299E+03   -0.23026E-03   -0.23448E-03 16721   0.224E-01    0.762E-02
RMM:   4    -0.761683318695E+03   -0.23961E-05   -0.30695E-04 11420   0.665E-02
   60 T=   163. E= -.75934010E+03 F= -.76168332E+03 E0= -.76168332E+03  EK= 0.23432E+01 SP= 0.00E+00 SK= 0.00E+00
       N       E                     dE             d eps       ncg     rms          rms(c)
DAV:   1    -0.761748028493E+03   -0.64712E-01   -0.23793E-02 31600   0.167E+00    0.131E-01
RMM:   2    -0.761749117262E+03   -0.10888E-02   -0.19018E-02 21228   0.235E-01    0.114E-01
RMM:   3    -0.761749124459E+03   -0.71970E-05   -0.21672E-03 16350   0.170E-01    0.697E-02
RMM:   4    -0.761749101343E+03    0.23117E-04   -0.99025E-04 16312   0.854E-02
   61 T=   168. E= -.75934107E+03 F= -.76174910E+03 E0= -.76174910E+03  EK= 0.24080E+01 SP= 0.00E+00 SK= 0.00E+00
       N       E                     dE             d eps       ncg     rms          rms(c)
DAV:   1    -0.761780457315E+03   -0.31333E-01   -0.25974E-02 32280   0.173E+00    0.110E-01
RMM:   2    -0.761782149906E+03   -0.16926E-02   -0.22259E-02 17728   0.270E-01    0.138E-01
RMM:   3    -0.761782377158E+03   -0.22725E-03   -0.33688E-03 17110   0.272E-01    0.101E-01
RMM:   4    -0.761782360958E+03    0.16200E-04   -0.71298E-04 14895   0.854E-02
   62 T=   170. E= -.75934176E+03 F= -.76178236E+03 E0= -.76178236E+03  EK= 0.24406E+01 SP= 0.00E+00 SK= 0.00E+00
       N       E                     dE             d eps       ncg     rms          rms(c)
DAV:   1    -0.761779629432E+03    0.27477E-02   -0.39922E-02 31140   0.166E+00    0.138E-01
RMM:   2    -0.761780999904E+03   -0.13705E-02   -0.22926E-02 19590   0.272E-01    0.141E-01
RMM:   3    -0.761781132394E+03   -0.13249E-03   -0.35010E-03 16789   0.245E-01    0.943E-02
RMM:   4    -0.761781174162E+03   -0.41769E-04   -0.14419E-03 18468   0.970E-02    0.497E-02
RMM:   5    -0.761781172959E+03    0.12031E-05   -0.62201E-04 14421   0.483E-02
   63 T=   170. E= -.75934124E+03 F= -.76178117E+03 E0= -.76178117E+03  EK= 0.24399E+01 SP= 0.00E+00 SK= 0.00E+00
       N       E                     dE             d eps       ncg     rms          rms(c)
DAV:   1    -0.761750294092E+03    0.30880E-01   -0.28371E-02 31830   0.167E+00    0.131E-01
RMM:   2    -0.761751783602E+03   -0.14895E-02   -0.21965E-02 17939   0.280E-01    0.141E-01
RMM:   3    -0.761752111404E+03   -0.32780E-03   -0.44378E-03 17174   0.308E-01    0.107E-01
RMM:   4    -0.761752136171E+03   -0.24768E-04   -0.93823E-04 16443   0.975E-02
   64 T=   168. E= -.75934031E+03 F= -.76175214E+03 E0= -.76175214E+03  EK= 0.24118E+01 SP= 0.00E+00 SK= 0.00E+00
       N       E                     dE             d eps       ncg     rms          rms(c)
DAV:   1    -0.761710282019E+03    0.41829E-01   -0.38970E-02 31820   0.150E+00    0.195E-01
RMM:   2    -0.761710665730E+03   -0.38371E-03   -0.21943E-02 21290   0.256E-01    0.116E-01
RMM:   3    -0.761710589371E+03    0.76359E-04   -0.25097E-03 16700   0.174E-01    0.488E-02
RMM:   4    -0.761710643337E+03   -0.53966E-04   -0.95638E-04 16462   0.905E-02
   65 T=   165. E= -.75933949E+03 F= -.76171064E+03 E0= -.76171064E+03  EK= 0.23712E+01 SP= 0.00E+00 SK= 0.00E+00
       N       E                     dE             d eps       ncg     rms          rms(c)
DAV:   1    -0.761675575749E+03    0.35014E-01   -0.32116E-02 31580   0.151E+00    0.145E-01
RMM:   2    -0.761676556445E+03   -0.98070E-03   -0.21522E-02 17972   0.275E-01    0.143E-01
RMM:   3    -0.761676739226E+03   -0.18278E-03   -0.39626E-03 17163   0.285E-01    0.946E-02
RMM:   4    -0.761676789758E+03   -0.50532E-04   -0.12829E-03 18253   0.963E-02    0.544E-02
RMM:   5    -0.761676790224E+03   -0.46576E-06   -0.80961E-04 16045   0.541E-02
   66 T=   163. E= -.75933787E+03 F= -.76167679E+03 E0= -.76167679E+03  EK= 0.23389E+01 SP= 0.00E+00 SK= 0.00E+00
       N       E                     dE             d eps       ncg     rms          rms(c)
DAV:   1    -0.761670170946E+03    0.66188E-02   -0.20819E-02 32240   0.134E+00    0.113E-01
RMM:   2    -0.761671104998E+03   -0.93405E-03   -0.13874E-02 17836   0.205E-01    0.897E-02
RMM:   3    -0.761671164546E+03   -0.59548E-04   -0.17662E-03 16845   0.187E-01    0.541E-02
RMM:   4    -0.761671237638E+03   -0.73092E-04   -0.17103E-03 19778   0.836E-02    0.354E-02
RMM:   5    -0.761671218998E+03    0.18640E-04   -0.13409E-04 10533   0.335E-02
   67 T=   163. E= -.75933658E+03 F= -.76167122E+03 E0= -.76167122E+03  EK= 0.23346E+01 SP= 0.00E+00 SK= 0.00E+00
       N       E                     dE             d eps       ncg     rms          rms(c)
DAV:   1    -0.761706979737E+03   -0.35742E-01   -0.13224E-02 32720   0.132E+00    0.748E-02
RMM:   2    -0.761707721578E+03   -0.74184E-03   -0.10028E-02 17924   0.180E-01    0.487E-02
RMM:   3    -0.761707939731E+03   -0.21815E-03   -0.17962E-03 16497   0.191E-01    0.328E-02
RMM:   4    -0.761707975532E+03   -0.35801E-04   -0.20652E-04 10630   0.566E-02
   68 T=   165. E= -.75933643E+03 F= -.76170798E+03 E0= -.76170798E+03  EK= 0.23716E+01 SP= 0.00E+00 SK= 0.00E+00
       N       E                     dE             d eps       ncg     rms          rms(c)
DAV:   1    -0.761786605425E+03   -0.78666E-01   -0.14500E-02 31810   0.133E+00    0.613E-02
RMM:   2    -0.761787440428E+03   -0.83500E-03   -0.95820E-03 18232   0.163E-01    0.496E-02
RMM:   3    -0.761787566445E+03   -0.12602E-03   -0.11967E-03 15994   0.148E-01    0.276E-02
RMM:   4    -0.761787594092E+03   -0.27646E-04   -0.21412E-04 10689   0.485E-02
   69 T=   171. E= -.75933723E+03 F= -.76178759E+03 E0= -.76178759E+03  EK= 0.24504E+01 SP= 0.00E+00 SK= 0.00E+00
       N       E                     dE             d eps       ncg     rms          rms(c)
DAV:   1    -0.761894515563E+03   -0.10695E+00   -0.11629E-02 31630   0.149E+00    0.430E-02
RMM:   2    -0.761895673876E+03   -0.11583E-02   -0.12165E-02 17879   0.180E-01    0.735E-02
RMM:   3    -0.761895766273E+03   -0.92397E-04   -0.10817E-03 15822   0.144E-01    0.622E-02
RMM:   4    -0.761895706882E+03    0.59391E-04   -0.41165E-04 12600   0.560E-02
   70 T=   178. E= -.75933886E+03 F= -.76189571E+03 E0= -.76189571E+03  EK= 0.25568E+01 SP= 0.00E+00 SK= 0.00E+00
       N       E                     dE             d eps       ncg     rms          rms(c)
DAV:   1    -0.762004858788E+03   -0.10909E+00   -0.13526E-02 31200   0.160E+00    0.548E-02
RMM:   2    -0.762005999739E+03   -0.11410E-02   -0.12181E-02 18330   0.186E-01    0.784E-02
RMM:   3    -0.762006088575E+03   -0.88837E-04   -0.11595E-03 15889   0.146E-01    0.637E-02
RMM:   4    -0.762006032955E+03    0.55621E-04   -0.78159E-04 15329   0.639E-02
   71 T=   186. E= -.75934119E+03 F= -.76200603E+03 E0= -.76200603E+03  EK= 0.26648E+01 SP= 0.00E+00 SK= 0.00E+00
       N       E                     dE             d eps       ncg     rms          rms(c)
DAV:   1    -0.762085272927E+03   -0.79184E-01   -0.12334E-02 32280   0.174E+00    0.563E-02
RMM:   2    -0.762086667346E+03   -0.13944E-02   -0.14864E-02 17704   0.204E-01    0.921E-02
RMM:   3    -0.762086776793E+03   -0.10945E-03   -0.14233E-03 16577   0.171E-01    0.778E-02
RMM:   4    -0.762086674359E+03    0.10243E-03   -0.87764E-04 15767   0.720E-02    0.211E-02
RMM:   5    -0.762086690914E+03   -0.16555E-04   -0.23644E-04 10816   0.416E-02
   72 T=   191. E= -.75934322E+03 F= -.76208669E+03 E0= -.76208669E+03  EK= 0.27435E+01 SP= 0.00E+00 SK= 0.00E+00
       N       E                     dE             d eps       ncg     rms          rms(c)
DAV:   1    -0.762109642764E+03   -0.22968E-01   -0.11357E-02 32280   0.181E+00    0.600E-02
RMM:   2    -0.762110849844E+03   -0.12071E-02   -0.13097E-02 18044   0.199E-01    0.663E-02
RMM:   3    -0.762111012543E+03   -0.16270E-03   -0.15432E-03 16440   0.176E-01    0.515E-02
RMM:   4    -0.762110984066E+03    0.28477E-04   -0.44630E-04 12736   0.626E-02
   73 T=   193. E= -.75934449E+03 F= -.76211098E+03 E0= -.76211098E+03  EK= 0.27665E+01 SP= 0.00E+00 SK= 0.00E+00
       N       E                     dE             d eps       ncg     rms          rms(c)
DAV:   1    -0.762065176907E+03    0.45836E-01   -0.12299E-02 32420   0.182E+00    0.689E-02
RMM:   2    -0.762066425857E+03   -0.12489E-02   -0.13855E-02 18001   0.209E-01    0.724E-02
RMM:   3    -0.762066637801E+03   -0.21194E-03   -0.19861E-03 16709   0.203E-01    0.538E-02
RMM:   4    -0.762066634881E+03    0.29200E-05   -0.30824E-04 11473   0.646E-02
   74 T=   190. E= -.75934502E+03 F= -.76206663E+03 E0= -.76206663E+03  EK= 0.27216E+01 SP= 0.00E+00 SK= 0.00E+00
       N       E                     dE             d eps       ncg     rms          rms(c)
DAV:   1    -0.761955500265E+03    0.11114E+00   -0.17258E-02 31740   0.179E+00    0.871E-02
RMM:   2    -0.761956982116E+03   -0.14819E-02   -0.17295E-02 18181   0.237E-01    0.108E-01
RMM:   3    -0.761957224874E+03   -0.24276E-03   -0.27927E-03 16658   0.240E-01    0.883E-02
RMM:   4    -0.761957213446E+03    0.11428E-04   -0.42472E-04 12430   0.727E-02
   75 T=   182. E= -.75934469E+03 F= -.76195721E+03 E0= -.76195721E+03  EK= 0.26125E+01 SP= 0.00E+00 SK= 0.00E+00
       N       E                     dE             d eps       ncg     rms          rms(c)
DAV:   1    -0.761798072372E+03    0.15915E+00   -0.31101E-02 31230   0.170E+00    0.125E-01
RMM:   2    -0.761799754898E+03   -0.16825E-02   -0.22949E-02 19544   0.276E-01    0.148E-01
RMM:   3    -0.761799927720E+03   -0.17282E-03   -0.36501E-03 16342   0.258E-01    0.112E-01
RMM:   4    -0.761799867128E+03    0.60592E-04   -0.13895E-03 17911   0.952E-02    0.559E-02
RMM:   5    -0.761799860437E+03    0.66908E-05   -0.90672E-04 16462   0.574E-02
   76 T=   171. E= -.75934358E+03 F= -.76179986E+03 E0= -.76179986E+03  EK= 0.24563E+01 SP= 0.00E+00 SK= 0.00E+00
       N       E                     dE             d eps       ncg     rms          rms(c)
DAV:   1    -0.761620148691E+03    0.17972E+00   -0.22480E-02 32390   0.159E+00    0.106E-01
RMM:   2    -0.761621462390E+03   -0.13137E-02   -0.17583E-02 18131   0.251E-01    0.133E-01
RMM:   3    -0.761621769448E+03   -0.30706E-03   -0.36928E-03 16878   0.287E-01    0.986E-02
RMM:   4    -0.761621731932E+03    0.37516E-04   -0.78438E-04 15271   0.910E-02
   77 T=   159. E= -.75934195E+03 F= -.76162173E+03 E0= -.76162173E+03  EK= 0.22798E+01 SP= 0.00E+00 SK= 0.00E+00
       N       E                     dE             d eps       ncg     rms          rms(c)
DAV:   1    -0.761452762192E+03    0.16901E+00   -0.30669E-02 31500   0.138E+00    0.126E-01
RMM:   2    -0.761453728088E+03   -0.96590E-03   -0.16778E-02 20688   0.227E-01    0.117E-01
RMM:   3    -0.761453739117E+03   -0.11030E-04   -0.22971E-03 16560   0.190E-01    0.737E-02
RMM:   4    -0.761453761735E+03   -0.22617E-04   -0.16364E-03 18708   0.935E-02    0.267E-02
RMM:   5    -0.761453774023E+03   -0.12288E-04   -0.22589E-04 10934   0.346E-02
   78 T=   147. E= -.75934052E+03 F= -.76145377E+03 E0= -.76145377E+03  EK= 0.21133E+01 SP= 0.00E+00 SK= 0.00E+00
       N       E                     dE             d eps       ncg     rms          rms(c)
DAV:   1    -0.761321571945E+03    0.13219E+00   -0.17371E-02 31760   0.131E+00    0.107E-01
RMM:   2    -0.761322520032E+03   -0.94809E-03   -0.15353E-02 20752   0.222E-01    0.117E-01
RMM:   3    -0.761322581408E+03   -0.61376E-04   -0.21482E-03 14997   0.188E-01    0.864E-02
RMM:   4    -0.761322499358E+03    0.82050E-04   -0.15493E-03 18564   0.907E-02    0.247E-02
RMM:   5    -0.761322514957E+03   -0.15599E-04   -0.26592E-04 11334   0.426E-02
   79 T=   138. E= -.75933944E+03 F= -.76132251E+03 E0= -.76132251E+03  EK= 0.19831E+01 SP= 0.00E+00 SK= 0.00E+00
       N       E                     dE             d eps       ncg     rms          rms(c)
DAV:   1    -0.761245892571E+03    0.76607E-01   -0.10627E-02 31880   0.114E+00    0.702E-02
RMM:   2    -0.761246485442E+03   -0.59287E-03   -0.73685E-03 19387   0.157E-01    0.420E-02
RMM:   3    -0.761246645744E+03   -0.16030E-03   -0.13594E-03 15402   0.164E-01    0.256E-02
RMM:   4    -0.761246665408E+03   -0.19664E-04   -0.18372E-04 10465   0.530E-02
   80 T=   133. E= -.75933909E+03 F= -.76124667E+03 E0= -.76124667E+03  EK= 0.19076E+01 SP= 0.00E+00 SK= 0.00E+00
       N       E                     dE             d eps       ncg     rms          rms(c)
DAV:   1    -0.761233071372E+03    0.13574E-01   -0.11616E-02 31570   0.110E+00    0.566E-02
RMM:   2    -0.761233704880E+03   -0.63351E-03   -0.72809E-03 18825   0.151E-01    0.422E-02
RMM:   3    -0.761233842128E+03   -0.13725E-03   -0.12666E-03 15789   0.162E-01    0.281E-02
RMM:   4    -0.761233854213E+03   -0.12085E-04   -0.24867E-04 10929   0.541E-02
   81 T=   132. E= -.75933931E+03 F= -.76123385E+03 E0= -.76123385E+03  EK= 0.18945E+01 SP= 0.00E+00 SK= 0.00E+00
       N       E                     dE             d eps       ncg     rms          rms(c)
DAV:   1    -0.761280150177E+03   -0.46308E-01   -0.11283E-02 31270   0.115E+00    0.586E-02
RMM:   2    -0.761280831609E+03   -0.68143E-03   -0.80046E-03 18769   0.160E-01    0.726E-02
RMM:   3    -0.761280969634E+03   -0.13803E-03   -0.14438E-03 15959   0.174E-01    0.580E-02
RMM:   4    -0.761280942081E+03    0.27554E-04   -0.25179E-04 10793   0.572E-02
   82 T=   135. E= -.75934016E+03 F= -.76128094E+03 E0= -.76128094E+03  EK= 0.19408E+01 SP= 0.00E+00 SK= 0.00E+00
       N       E                     dE             d eps       ncg     rms          rms(c)
DAV:   1    -0.761373628610E+03   -0.92659E-01   -0.17293E-02 31350   0.124E+00    0.881E-02
RMM:   2    -0.761374346700E+03   -0.71809E-03   -0.10043E-02 18874   0.178E-01    0.956E-02
RMM:   3    -0.761374420117E+03   -0.73417E-04   -0.16412E-03 16051   0.182E-01    0.739E-02
RMM:   4    -0.761374387759E+03    0.32358E-04   -0.79673E-04 15521   0.677E-02
   83 T=   142. E= -.75934137E+03 F= -.76137439E+03 E0= -.76137439E+03  EK= 0.20330E+01 SP= 0.00E+00 SK= 0.00E+00
       N       E                     dE             d eps       ncg     rms          rms(c)
DAV:   1    -0.761492454467E+03   -0.11803E+00   -0.22867E-02 32620   0.141E+00    0.945E-02
RMM:   2    -0.761493684936E+03   -0.12305E-02   -0.15567E-02 17891   0.222E-01    0.131E-01
RMM:   3    -0.761493834330E+03   -0.14939E-03   -0.21049E-03 16900   0.218E-01    0.117E-01
RMM:   4    -0.761493662176E+03    0.17215E-03   -0.83088E-04 15921   0.774E-02    0.679E-02
RMM:   5    -0.761493711870E+03   -0.49693E-04   -0.18998E-03 19805   0.732E-02    0.499E-02
RMM:   6    -0.761493637357E+03    0.74513E-04   -0.25577E-04 11744   0.597E-02
   84 T=   150. E= -.75934325E+03 F= -.76149364E+03 E0= -.76149364E+03  EK= 0.21504E+01 SP= 0.00E+00 SK= 0.00E+00
       N       E                     dE             d eps       ncg     rms          rms(c)
DAV:   1    -0.761612250299E+03   -0.11854E+00   -0.11801E-02 32070   0.152E+00    0.554E-02
RMM:   2    -0.761613151061E+03   -0.90076E-03   -0.10218E-02 18890   0.179E-01    0.636E-02
RMM:   3    -0.761613342495E+03   -0.19143E-03   -0.17960E-03 15918   0.189E-01    0.469E-02
RMM:   4    -0.761613356421E+03   -0.13926E-04   -0.19582E-04 10614   0.568E-02
   85 T=   158. E= -.75934467E+03 F= -.76161336E+03 E0= -.76161336E+03  EK= 0.22687E+01 SP= 0.00E+00 SK= 0.00E+00
       N       E                     dE             d eps       ncg     rms          rms(c)
DAV:   1    -0.761708981239E+03   -0.95639E-01   -0.14783E-02 32130   0.160E+00    0.745E-02
RMM:   2    -0.761709821498E+03   -0.84026E-03   -0.10535E-02 19426   0.176E-01    0.446E-02
RMM:   3    -0.761710024307E+03   -0.20281E-03   -0.17046E-03 15629   0.174E-01    0.270E-02
RMM:   4    -0.761710060637E+03   -0.36330E-04   -0.24735E-04 11015   0.571E-02
   86 T=   165. E= -.75934556E+03 F= -.76171006E+03 E0= -.76171006E+03  EK= 0.23645E+01 SP= 0.00E+00 SK= 0.00E+00
       N       E                     dE             d eps       ncg     rms          rms(c)
DAV:   1    -0.761764216585E+03   -0.54192E-01   -0.13909E-02 31530   0.174E+00    0.635E-02
RMM:   2    -0.761765724815E+03   -0.15082E-02   -0.16817E-02 18283   0.223E-01    0.957E-02
RMM:   3    -0.761765937855E+03   -0.21304E-03   -0.22888E-03 16479   0.216E-01    0.773E-02
RMM:   4    -0.761765929143E+03    0.87124E-05   -0.28751E-04 11318   0.643E-02
   87 T=   169. E= -.75934646E+03 F= -.76176593E+03 E0= -.76176593E+03  EK= 0.24195E+01 SP= 0.00E+00 SK= 0.00E+00
       N       E                     dE             d eps       ncg     rms          rms(c)
DAV:   1    -0.761768660738E+03   -0.27229E-02   -0.22481E-02 31500   0.172E+00    0.107E-01
RMM:   2    -0.761769702394E+03   -0.10417E-02   -0.15687E-02 20073   0.220E-01    0.908E-02
RMM:   3    -0.761769825208E+03   -0.12281E-03   -0.22691E-03 16029   0.189E-01    0.562E-02
RMM:   4    -0.761769847572E+03   -0.22365E-04   -0.45788E-04 12880   0.705E-02
   88 T=   169. E= -.75934679E+03 F= -.76176985E+03 E0= -.76176985E+03  EK= 0.24231E+01 SP= 0.00E+00 SK= 0.00E+00
       N       E                     dE             d eps       ncg     rms          rms(c)
DAV:   1    -0.761721487983E+03    0.48337E-01   -0.21355E-02 33050   0.179E+00    0.934E-02
RMM:   2    -0.761723870087E+03   -0.23821E-02   -0.26649E-02 17763   0.277E-01    0.143E-01
RMM:   3    -0.761723925215E+03   -0.55129E-04   -0.23024E-03 16884   0.217E-01    0.112E-01
RMM:   4    -0.761723828159E+03    0.97056E-04   -0.52671E-04 13398   0.722E-02
   89 T=   166. E= -.75934684E+03 F= -.76172383E+03 E0= -.76172383E+03  EK= 0.23770E+01 SP= 0.00E+00 SK= 0.00E+00
       N       E                     dE             d eps       ncg     rms          rms(c)
DAV:   1    -0.761638544568E+03    0.85381E-01   -0.41836E-02 30320   0.167E+00    0.118E-01
RMM:   2    -0.761640202017E+03   -0.16574E-02   -0.22988E-02 19053   0.275E-01    0.137E-01
RMM:   3    -0.761640401941E+03   -0.19992E-03   -0.35798E-03 16372   0.255E-01    0.994E-02
RMM:   4    -0.761640446191E+03   -0.44251E-04   -0.87779E-04 15951   0.831E-02
   90 T=   160. E= -.75934580E+03 F= -.76164045E+03 E0= -.76164045E+03  EK= 0.22946E+01 SP= 0.00E+00 SK= 0.00E+00
       N       E                     dE             d eps       ncg     rms          rms(c)
DAV:   1    -0.761539887654E+03    0.10051E+00   -0.46347E-02 32390   0.166E+00    0.985E-02
RMM:   2    -0.761543078742E+03   -0.31911E-02   -0.34964E-02 17543   0.326E-01    0.176E-01
RMM:   3    -0.761543116288E+03   -0.37547E-04   -0.27021E-03 17120   0.238E-01    0.150E-01
RMM:   4    -0.761542873056E+03    0.24323E-03   -0.13990E-03 18339   0.907E-02    0.845E-02
RMM:   5    -0.761542808717E+03    0.64340E-04   -0.12465E-03 18274   0.667E-02    0.320E-02
RMM:   6    -0.761542815480E+03   -0.67638E-05   -0.22628E-04 10855   0.589E-02
   91 T=   153. E= -.75934417E+03 F= -.76154282E+03 E0= -.76154282E+03  EK= 0.21986E+01 SP= 0.00E+00 SK= 0.00E+00
       N       E                     dE             d eps       ncg     rms          rms(c)
DAV:   1    -0.761458815559E+03    0.83993E-01   -0.25996E-02 32280   0.146E+00    0.127E-01
RMM:   2    -0.761459901177E+03   -0.10856E-02   -0.17248E-02 18479   0.242E-01    0.108E-01
RMM:   3    -0.761460105870E+03   -0.20469E-03   -0.31082E-03 16743   0.246E-01    0.734E-02
RMM:   4    -0.761460132020E+03   -0.26150E-04   -0.63113E-04 14578   0.799E-02
   92 T=   148. E= -.75934223E+03 F= -.76146013E+03 E0= -.76146013E+03  EK= 0.21179E+01 SP= 0.00E+00 SK= 0.00E+00
       N       E                     dE             d eps       ncg     rms          rms(c)
DAV:   1    -0.761419996533E+03    0.40109E-01   -0.22772E-02 31990   0.134E+00    0.886E-02
RMM:   2    -0.761421033977E+03   -0.10374E-02   -0.13778E-02 18216   0.205E-01    0.910E-02
RMM:   3    -0.761421162056E+03   -0.12808E-03   -0.19557E-03 16741   0.197E-01    0.648E-02
RMM:   4    -0.761421161673E+03    0.38302E-06   -0.47927E-04 13141   0.663E-02
   93 T=   145. E= -.75934101E+03 F= -.76142116E+03 E0= -.76142116E+03  EK= 0.20802E+01 SP= 0.00E+00 SK= 0.00E+00
       N       E                     dE             d eps       ncg     rms          rms(c)
DAV:   1    -0.761443053253E+03   -0.21891E-01   -0.27618E-02 31980   0.131E+00    0.837E-02
RMM:   2    -0.761444565524E+03   -0.15123E-02   -0.17641E-02 17845   0.229E-01    0.127E-01
RMM:   3    -0.761444605233E+03   -0.39709E-04   -0.14401E-03 16604   0.170E-01    0.111E-01
RMM:   4    -0.761444444080E+03    0.16115E-03   -0.94301E-04 16507   0.710E-02    0.570E-02
RMM:   5    -0.761444439894E+03    0.41866E-05   -0.80309E-04 16240   0.573E-02
   94 T=   147. E= -.75934099E+03 F= -.76144444E+03 E0= -.76144444E+03  EK= 0.21035E+01 SP= 0.00E+00 SK= 0.00E+00
       N       E                     dE             d eps       ncg     rms          rms(c)
DAV:   1    -0.761530505502E+03   -0.86061E-01   -0.21285E-02 31850   0.129E+00    0.127E-01
RMM:   2    -0.761531006152E+03   -0.50065E-03   -0.11974E-02 19085   0.194E-01    0.106E-01
RMM:   3    -0.761531011874E+03   -0.57216E-05   -0.19529E-03 16766   0.187E-01    0.653E-02
RMM:   4    -0.761531043314E+03   -0.31440E-04   -0.13238E-03 18617   0.810E-02    0.241E-02
RMM:   5    -0.761531049743E+03   -0.64290E-05   -0.19883E-04 10661   0.318E-02
   95 T=   153. E= -.75934190E+03 F= -.76153105E+03 E0= -.76153105E+03  EK= 0.21891E+01 SP= 0.00E+00 SK= 0.00E+00
       N       E                     dE             d eps       ncg     rms          rms(c)
DAV:   1    -0.761664812313E+03   -0.13377E+00   -0.12487E-02 32770   0.141E+00    0.748E-02
RMM:   2    -0.761665406947E+03   -0.59463E-03   -0.84479E-03 18225   0.159E-01    0.567E-02
RMM:   3    -0.761665527547E+03   -0.12060E-03   -0.13052E-03 16205   0.161E-01    0.343E-02
RMM:   4    -0.761665540497E+03   -0.12950E-04   -0.25521E-04 10777   0.552E-02
   96 T=   162. E= -.75934371E+03 F= -.76166554E+03 E0= -.76166554E+03  EK= 0.23218E+01 SP= 0.00E+00 SK= 0.00E+00
       N       E                     dE             d eps       ncg     rms          rms(c)
DAV:   1    -0.761817504212E+03   -0.15198E+00   -0.13487E-02 32380   0.149E+00    0.730E-02
RMM:   2    -0.761818271046E+03   -0.76683E-03   -0.93947E-03 18150   0.165E-01    0.511E-02
RMM:   3    -0.761818375214E+03   -0.10417E-03   -0.11302E-03 16286   0.147E-01    0.294E-02
RMM:   4    -0.761818390101E+03   -0.14887E-04   -0.27723E-04 10989   0.523E-02
   97 T=   172. E= -.75934548E+03 F= -.76181839E+03 E0= -.76181839E+03  EK= 0.24729E+01 SP= 0.00E+00 SK= 0.00E+00
       N       E                     dE             d eps       ncg     rms          rms(c)
DAV:   1    -0.761953959415E+03   -0.13558E+00   -0.12131E-02 32190   0.166E+00    0.626E-02
RMM:   2    -0.761955151301E+03   -0.11919E-02   -0.13110E-02 17983   0.198E-01    0.886E-02
RMM:   3    -0.761955258689E+03   -0.10739E-03   -0.13433E-03 16492   0.164E-01    0.738E-02
RMM:   4    -0.761955189425E+03    0.69264E-04   -0.35279E-04 11776   0.595E-02
   98 T=   182. E= -.75934723E+03 F= -.76195519E+03 E0= -.76195519E+03  EK= 0.26080E+01 SP= 0.00E+00 SK= 0.00E+00
       N       E                     dE             d eps       ncg     rms          rms(c)
DAV:   1    -0.762044740452E+03   -0.89482E-01   -0.21500E-02 31580   0.170E+00    0.121E-01
RMM:   2    -0.762045802664E+03   -0.10622E-02   -0.15855E-02 18692   0.231E-01    0.113E-01
RMM:   3    -0.762045913160E+03   -0.11050E-03   -0.25671E-03 16519   0.220E-01    0.814E-02
RMM:   4    -0.762045916427E+03   -0.32676E-05   -0.10051E-03 17022   0.797E-02    0.364E-02
RMM:   5    -0.762045936810E+03   -0.20383E-04   -0.65605E-04 14656   0.493E-02
   99 T=   188. E= -.75934846E+03 F= -.76204594E+03 E0= -.76204594E+03  EK= 0.26975E+01 SP= 0.00E+00 SK= 0.00E+00
       N       E                     dE             d eps       ncg     rms          rms(c)
DAV:   1    -0.762070095471E+03   -0.24179E-01   -0.16309E-02 32970   0.183E+00    0.853E-02
RMM:   2    -0.762071816107E+03   -0.17206E-02   -0.19678E-02 17778   0.249E-01    0.122E-01
RMM:   3    -0.762071964586E+03   -0.14848E-03   -0.21812E-03 16949   0.216E-01    0.103E-01
RMM:   4    -0.762071829912E+03    0.13467E-03   -0.23078E-03 20873   0.981E-02    0.315E-02
RMM:   5    -0.762071820126E+03    0.97863E-05   -0.15599E-04 10596   0.318E-02
  100 T=   190. E= -.75934916E+03 F= -.76207182E+03 E0= -.76207182E+03  EK= 0.27227E+01 SP= 0.00E+00 SK= 0.00E+00
       N       E                     dE             d eps       ncg     rms          rms(c)
DAV:   1    -0.762025769015E+03    0.46061E-01   -0.12430E-02 32420   0.175E+00    0.606E-02
RMM:   2    -0.762026977038E+03   -0.12080E-02   -0.13201E-02 18113   0.203E-01    0.511E-02
RMM:   3    -0.762027198069E+03   -0.22103E-03   -0.17906E-03 16531   0.191E-01    0.374E-02
RMM:   4    -0.762027196608E+03    0.14608E-05   -0.30812E-04 11336   0.624E-02
  101 T=   187. E= -.75934879E+03 F= -.76202720E+03 E0= -.76202720E+03  EK= 0.26784E+01 SP= 0.00E+00 SK= 0.00E+00
       N       E                     dE             d eps       ncg     rms          rms(c)
DAV:   1    -0.761922989058E+03    0.10421E+00   -0.15276E-02 32510   0.165E+00    0.800E-02
RMM:   2    -0.761924052391E+03   -0.10633E-02   -0.12422E-02 18069   0.198E-01    0.434E-02
RMM:   3    -0.761924312451E+03   -0.26006E-03   -0.20078E-03 16665   0.203E-01    0.269E-02
RMM:   4    -0.761924355215E+03   -0.42764E-04   -0.31363E-04 11434   0.644E-02
  102 T=   180. E= -.75934799E+03 F= -.76192436E+03 E0= -.76192436E+03  EK= 0.25764E+01 SP= 0.00E+00 SK= 0.00E+00
       N       E                     dE             d eps       ncg     rms          rms(c)
DAV:   1    -0.761783398278E+03    0.14091E+00   -0.17134E-02 32150   0.160E+00    0.569E-02
RMM:   2    -0.761784798738E+03   -0.14005E-02   -0.15144E-02 17912   0.222E-01    0.894E-02
RMM:   3    -0.761785099026E+03   -0.30029E-03   -0.26454E-03 16847   0.240E-01    0.761E-02
RMM:   4    -0.761785126066E+03   -0.27040E-04   -0.30028E-04 11378   0.700E-02
  103 T=   170. E= -.75934633E+03 F= -.76178513E+03 E0= -.76178513E+03  EK= 0.24388E+01 SP= 0.00E+00 SK= 0.00E+00
       N       E                     dE             d eps       ncg     rms          rms(c)
DAV:   1    -0.761635100718E+03    0.15000E+00   -0.23115E-02 31630   0.144E+00    0.102E-01
RMM:   2    -0.761636123073E+03   -0.10224E-02   -0.15964E-02 21481   0.214E-01    0.859E-02
RMM:   3    -0.761636152720E+03   -0.29647E-04   -0.16557E-03 15507   0.145E-01    0.510E-02
RMM:   4    -0.761636134163E+03    0.18557E-04   -0.52656E-04 13112   0.715E-02
  104 T=   160. E= -.75934478E+03 F= -.76163613E+03 E0= -.76163613E+03  EK= 0.22914E+01 SP= 0.00E+00 SK= 0.00E+00
       N       E                     dE             d eps       ncg     rms          rms(c)
DAV:   1    -0.761503244268E+03    0.13291E+00   -0.22083E-02 32650   0.141E+00    0.121E-01
RMM:   2    -0.761504373511E+03   -0.11292E-02   -0.18852E-02 19708   0.245E-01    0.123E-01
RMM:   3    -0.761504481711E+03   -0.10820E-03   -0.28354E-03 16809   0.224E-01    0.816E-02
RMM:   4    -0.761504453832E+03    0.27879E-04   -0.10609E-03 16598   0.921E-02    0.320E-02
RMM:   5    -0.761504482187E+03   -0.28355E-04   -0.58343E-04 14458   0.476E-02
  105 T=   151. E= -.75934369E+03 F= -.76150448E+03 E0= -.76150448E+03  EK= 0.21608E+01 SP= 0.00E+00 SK= 0.00E+00
       N       E                     dE             d eps       ncg     rms          rms(c)
DAV:   1    -0.761409532404E+03    0.94921E-01   -0.21173E-02 32050   0.126E+00    0.933E-02
RMM:   2    -0.761410359411E+03   -0.82701E-03   -0.11265E-02 18823   0.191E-01    0.754E-02
RMM:   3    -0.761410492399E+03   -0.13299E-03   -0.20533E-03 16552   0.202E-01    0.473E-02
RMM:   4    -0.761410539004E+03   -0.46605E-04   -0.11555E-03 17279   0.799E-02    0.219E-02
RMM:   5    -0.761410542219E+03   -0.32148E-05   -0.13911E-04 10232   0.314E-02
  106 T=   144. E= -.75934271E+03 F= -.76141054E+03 E0= -.76141054E+03  EK= 0.20678E+01 SP= 0.00E+00 SK= 0.00E+00
       N       E                     dE             d eps       ncg     rms          rms(c)
DAV:   1    -0.761365661600E+03    0.44877E-01   -0.13142E-02 32250   0.125E+00    0.482E-02
RMM:   2    -0.761366378338E+03   -0.71674E-03   -0.82024E-03 19154   0.160E-01    0.405E-02
RMM:   3    -0.761366560317E+03   -0.18198E-03   -0.14336E-03 15599   0.167E-01    0.265E-02
RMM:   4    -0.761366586463E+03   -0.26146E-04   -0.17081E-04 10494   0.541E-02
  107 T=   141. E= -.75934232E+03 F= -.76136659E+03 E0= -.76136659E+03  EK= 0.20243E+01 SP= 0.00E+00 SK= 0.00E+00
       N       E                     dE             d eps       ncg     rms          rms(c)
DAV:   1    -0.761374482292E+03   -0.79220E-02   -0.13248E-02 31790   0.125E+00    0.509E-02
RMM:   2    -0.761375222467E+03   -0.74017E-03   -0.81589E-03 18909   0.154E-01    0.353E-02
RMM:   3    -0.761375379477E+03   -0.15701E-03   -0.12437E-03 15757   0.156E-01    0.213E-02
RMM:   4    -0.761375406417E+03   -0.26939E-04   -0.17055E-04 10468   0.497E-02
  108 T=   142. E= -.75934251E+03 F= -.76137541E+03 E0= -.76137541E+03  EK= 0.20329E+01 SP= 0.00E+00 SK= 0.00E+00
       N       E                     dE             d eps       ncg     rms          rms(c)
DAV:   1    -0.761428214937E+03   -0.52835E-01   -0.11841E-02 31090   0.135E+00    0.427E-02
RMM:   2    -0.761429155370E+03   -0.94043E-03   -0.99156E-03 18350   0.171E-01    0.623E-02
RMM:   3    -0.761429312097E+03   -0.15673E-03   -0.14130E-03 16284   0.171E-01    0.512E-02
RMM:   4    -0.761429309787E+03    0.23102E-05   -0.19199E-04 10524   0.536E-02
  109 T=   145. E= -.75934313E+03 F= -.76142931E+03 E0= -.76142931E+03  EK= 0.20862E+01 SP= 0.00E+00 SK= 0.00E+00
       N       E                     dE             d eps       ncg     rms          rms(c)
DAV:   1    -0.761513105703E+03   -0.83794E-01   -0.13219E-02 31710   0.144E+00    0.724E-02
RMM:   2    -0.761514022089E+03   -0.91639E-03   -0.11249E-02 19564   0.186E-01    0.845E-02
RMM:   3    -0.761514147400E+03   -0.12531E-03   -0.16180E-03 15708   0.172E-01    0.637E-02
RMM:   4    -0.761514123745E+03    0.23655E-04   -0.31455E-04 11193   0.637E-02
  110 T=   151. E= -.75934444E+03 F= -.76151412E+03 E0= -.76151412E+03  EK= 0.21697E+01 SP= 0.00E+00 SK= 0.00E+00
       N       E                     dE             d eps       ncg     rms          rms(c)
DAV:   1    -0.761608530695E+03   -0.94383E-01   -0.19005E-02 31780   0.157E+00    0.771E-02
RMM:   2    -0.761610117615E+03   -0.15869E-02   -0.17660E-02 17888   0.232E-01    0.124E-01
RMM:   3    -0.761610242888E+03   -0.12527E-03   -0.20001E-03 16987   0.211E-01    0.107E-01
RMM:   4    -0.761610096606E+03    0.14628E-03   -0.64570E-04 14634   0.755E-02    0.617E-02
RMM:   5    -0.761610142525E+03   -0.45919E-04   -0.17384E-03 19534   0.723E-02    0.444E-02
RMM:   6    -0.761610090036E+03    0.52488E-04   -0.23209E-04 11360   0.536E-02
  111 T=   158. E= -.75934561E+03 F= -.76161009E+03 E0= -.76161009E+03  EK= 0.22645E+01 SP= 0.00E+00 SK= 0.00E+00
       N       E                     dE             d eps       ncg     rms          rms(c)
DAV:   1    -0.761694617456E+03   -0.84475E-01   -0.10474E-02 31850   0.168E+00    0.626E-02
RMM:   2    -0.761695768569E+03   -0.11511E-02   -0.12952E-02 18184   0.204E-01    0.869E-02
RMM:   3    -0.761695978324E+03   -0.20976E-03   -0.20073E-03 16682   0.208E-01    0.654E-02
RMM:   4    -0.761695976233E+03    0.20916E-05   -0.23817E-04 10734   0.640E-02
  112 T=   164. E= -.75934688E+03 F= -.76169598E+03 E0= -.76169598E+03  EK= 0.23491E+01 SP= 0.00E+00 SK= 0.00E+00
       N       E                     dE             d eps       ncg     rms          rms(c)
DAV:   1    -0.761751788895E+03   -0.55811E-01   -0.15371E-02 31380   0.168E+00    0.844E-02
RMM:   2    -0.761752699940E+03   -0.91104E-03   -0.11671E-02 18608   0.188E-01    0.543E-02
RMM:   3    -0.761752899187E+03   -0.19925E-03   -0.17429E-03 16374   0.185E-01    0.355E-02
RMM:   4    -0.761752926754E+03   -0.27567E-04   -0.25963E-04 10896   0.598E-02
  113 T=   168. E= -.75934795E+03 F= -.76175293E+03 E0= -.76175293E+03  EK= 0.24050E+01 SP= 0.00E+00 SK= 0.00E+00
       N       E                     dE             d eps       ncg     rms          rms(c)
DAV:   1    -0.761766442675E+03   -0.13543E-01   -0.13431E-02 31910   0.182E+00    0.966E-02
RMM:   2    -0.761768385226E+03   -0.19426E-02   -0.22466E-02 17748   0.260E-01    0.118E-01
RMM:   3    -0.761768535966E+03   -0.15074E-03   -0.23729E-03 17087   0.227E-01    0.939E-02
RMM:   4    -0.761768492340E+03    0.43625E-04   -0.35771E-04 11648   0.729E-02
  114 T=   169. E= -.75934861E+03 F= -.76176849E+03 E0= -.76176849E+03  EK= 0.24199E+01 SP= 0.00E+00 SK= 0.00E+00
       N       E                     dE             d eps       ncg     rms          rms(c)
DAV:   1    -0.761736841012E+03    0.31695E-01   -0.30274E-02 31080   0.172E+00    0.121E-01
RMM:   2    -0.761737974729E+03   -0.11337E-02   -0.17237E-02 19149   0.239E-01    0.908E-02
RMM:   3    -0.761738157602E+03   -0.18287E-03   -0.27202E-03 16589   0.221E-01    0.539E-02
RMM:   4    -0.761738196710E+03   -0.39107E-04   -0.43718E-04 12964   0.749E-02
  115 T=   167. E= -.75934898E+03 F= -.76173820E+03 E0= -.76173820E+03  EK= 0.23892E+01 SP= 0.00E+00 SK= 0.00E+00
       N       E                     dE             d eps       ncg     rms          rms(c)
DAV:   1    -0.761664593821E+03    0.73564E-01   -0.24263E-02 32800   0.177E+00    0.105E-01
RMM:   2    -0.761667782624E+03   -0.31888E-02   -0.34941E-02 17584   0.322E-01    0.170E-01
RMM:   3    -0.761667716787E+03    0.65836E-04   -0.21644E-03 17222   0.213E-01    0.134E-01
RMM:   4    -0.761667485621E+03    0.23117E-03   -0.86567E-04 16363   0.809E-02    0.836E-02
RMM:   5    -0.761667449713E+03    0.35908E-04   -0.19171E-03 20639   0.769E-02    0.265E-02
RMM:   6    -0.761667450691E+03   -0.97796E-06   -0.15248E-04 10900   0.441E-02
  116 T=   162. E= -.75934856E+03 F= -.76166745E+03 E0= -.76166745E+03  EK= 0.23189E+01 SP= 0.00E+00 SK= 0.00E+00
       N       E                     dE             d eps       ncg     rms          rms(c)
DAV:   1    -0.761569318313E+03    0.98131E-01   -0.18661E-02 31490   0.159E+00    0.676E-02
RMM:   2    -0.761570791412E+03   -0.14731E-02   -0.16245E-02 18343   0.221E-01    0.760E-02
RMM:   3    -0.761570954408E+03   -0.16300E-03   -0.17563E-03 16442   0.184E-01    0.567E-02
RMM:   4    -0.761570939151E+03    0.15257E-04   -0.27436E-04 11067   0.598E-02
  117 T=   155. E= -.75934778E+03 F= -.76157094E+03 E0= -.76157094E+03  EK= 0.22232E+01 SP= 0.00E+00 SK= 0.00E+00
       N       E                     dE             d eps       ncg     rms          rms(c)
DAV:   1    -0.761469169137E+03    0.10179E+00   -0.20394E-02 31230   0.141E+00    0.702E-02
RMM:   2    -0.761470328104E+03   -0.11590E-02   -0.12989E-02 18195   0.195E-01    0.603E-02
RMM:   3    -0.761470475584E+03   -0.14748E-03   -0.14769E-03 16528   0.168E-01    0.409E-02
RMM:   4    -0.761470486218E+03   -0.10633E-04   -0.30264E-04 11255   0.582E-02
  118 T=   148. E= -.75934656E+03 F= -.76147049E+03 E0= -.76147049E+03  EK= 0.21239E+01 SP= 0.00E+00 SK= 0.00E+00
       N       E                     dE             d eps       ncg     rms          rms(c)
DAV:   1    -0.761390071769E+03    0.80404E-01   -0.22243E-02 31660   0.133E+00    0.774E-02
RMM:   2    -0.761391666967E+03   -0.15952E-02   -0.17910E-02 17799   0.230E-01    0.998E-02
RMM:   3    -0.761391763617E+03   -0.96650E-04   -0.17174E-03 16732   0.187E-01    0.795E-02
RMM:   4    -0.761391705635E+03    0.57982E-04   -0.43886E-04 12758   0.656E-02
  119 T=   143. E= -.75934548E+03 F= -.76139171E+03 E0= -.76139171E+03  EK= 0.20462E+01 SP= 0.00E+00 SK= 0.00E+00
       N       E                     dE             d eps       ncg     rms          rms(c)
DAV:   1    -0.761354736887E+03    0.37027E-01   -0.27723E-02 30750   0.120E+00    0.123E-01
RMM:   2    -0.761355584890E+03   -0.84800E-03   -0.14832E-02 18696   0.218E-01    0.107E-01
RMM:   3    -0.761355651666E+03   -0.66776E-04   -0.22520E-03 16452   0.203E-01    0.712E-02
RMM:   4    -0.761355683672E+03   -0.32006E-04   -0.11956E-03 18216   0.794E-02    0.266E-02
RMM:   5    -0.761355693892E+03   -0.10220E-04   -0.28931E-04 11782   0.377E-02
  120 T=   140. E= -.75934457E+03 F= -.76135569E+03 E0= -.76135569E+03  EK= 0.20111E+01 SP= 0.00E+00 SK= 0.00E+00
       N       E                     dE             d eps       ncg     rms          rms(c)
DAV:   1    -0.761373081273E+03   -0.17398E-01   -0.19605E-02 31670   0.119E+00    0.799E-02
RMM:   2    -0.761374062129E+03   -0.98086E-03   -0.12678E-02 17980   0.200E-01    0.996E-02
RMM:   3    -0.761374195630E+03   -0.13350E-03   -0.18850E-03 16708   0.198E-01    0.775E-02
RMM:   4    -0.761374172230E+03    0.23400E-04   -0.35292E-04 11692   0.647E-02
  121 T=   141. E= -.75934463E+03 F= -.76137417E+03 E0= -.76137417E+03  EK= 0.20295E+01 SP= 0.00E+00 SK= 0.00E+00
       N       E                     dE             d eps       ncg     rms          rms(c)
DAV:   1    -0.761445281480E+03   -0.71086E-01   -0.25323E-02 31370   0.124E+00    0.132E-01
RMM:   2    -0.761445881577E+03   -0.60010E-03   -0.14189E-02 20206   0.204E-01    0.104E-01
RMM:   3    -0.761445871332E+03    0.10246E-04   -0.18990E-03 16448   0.167E-01    0.586E-02
RMM:   4    -0.761445906099E+03   -0.34767E-04   -0.10076E-03 16897   0.767E-02    0.204E-02
RMM:   5    -0.761445922215E+03   -0.16116E-04   -0.25082E-04 11194   0.352E-02
  122 T=   146. E= -.75934572E+03 F= -.76144592E+03 E0= -.76144592E+03  EK= 0.21002E+01 SP= 0.00E+00 SK= 0.00E+00
       N       E                     dE             d eps       ncg     rms          rms(c)
DAV:   1    -0.761556220622E+03   -0.11031E+00   -0.18050E-02 32210   0.141E+00    0.977E-02
RMM:   2    -0.761556987919E+03   -0.76730E-03   -0.12660E-02 18658   0.198E-01    0.102E-01
RMM:   3    -0.761557080250E+03   -0.92331E-04   -0.19977E-03 16422   0.196E-01    0.717E-02
RMM:   4    -0.761557064389E+03    0.15861E-04   -0.51722E-04 13702   0.703E-02
  123 T=   154. E= -.75934716E+03 F= -.76155706E+03 E0= -.76155706E+03  EK= 0.22099E+01 SP= 0.00E+00 SK= 0.00E+00
       N       E                     dE             d eps       ncg     rms          rms(c)
DAV:   1    -0.761682956457E+03   -0.12588E+00   -0.21210E-02 31910   0.155E+00    0.975E-02
RMM:   2    -0.761683897785E+03   -0.94133E-03   -0.13391E-02 18339   0.203E-01    0.984E-02
RMM:   3    -0.761684000735E+03   -0.10295E-03   -0.19173E-03 16655   0.194E-01    0.681E-02
RMM:   4    -0.761684002209E+03   -0.14740E-05   -0.81924E-04 15970   0.729E-02
  124 T=   163. E= -.75934868E+03 F= -.76168400E+03 E0= -.76168400E+03  EK= 0.23353E+01 SP= 0.00E+00 SK= 0.00E+00
       N       E                     dE             d eps       ncg     rms          rms(c)
DAV:   1    -0.761800045633E+03   -0.11604E+00   -0.21785E-02 32660   0.171E+00    0.974E-02
RMM:   2    -0.761801559978E+03   -0.15143E-02   -0.18463E-02 17970   0.240E-01    0.131E-01
RMM:   3    -0.761801717121E+03   -0.15714E-03   -0.25102E-03 16857   0.229E-01    0.110E-01
RMM:   4    -0.761801598164E+03    0.11896E-03   -0.73458E-04 15727   0.801E-02    0.678E-02
RMM:   5    -0.761801626751E+03   -0.28587E-04   -0.16842E-03 18943   0.718E-02    0.476E-02
RMM:   6    -0.761801570796E+03    0.55955E-04   -0.26868E-04 12086   0.624E-02
  125 T=   171. E= -.75935033E+03 F= -.76180157E+03 E0= -.76180157E+03  EK= 0.24512E+01 SP= 0.00E+00 SK= 0.00E+00
       N       E                     dE             d eps       ncg     rms          rms(c)
DAV:   1    -0.761886387915E+03   -0.84761E-01   -0.13254E-02 32510   0.182E+00    0.667E-02
RMM:   2    -0.761887610657E+03   -0.12227E-02   -0.13734E-02 18149   0.212E-01    0.819E-02
RMM:   3    -0.761887876319E+03   -0.26566E-03   -0.23229E-03 16718   0.221E-01    0.663E-02
RMM:   4    -0.761887879138E+03   -0.28182E-05   -0.28133E-04 11159   0.680E-02
  126 T=   177. E= -.75935151E+03 F= -.76188788E+03 E0= -.76188788E+03  EK= 0.25364E+01 SP= 0.00E+00 SK= 0.00E+00
       N       E                     dE             d eps       ncg     rms          rms(c)
DAV:   1    -0.761927062545E+03   -0.39186E-01   -0.19219E-02 31610   0.182E+00    0.933E-02
RMM:   2    -0.761928087096E+03   -0.10246E-02   -0.13071E-02 19410   0.197E-01    0.548E-02
RMM:   3    -0.761928295243E+03   -0.20815E-03   -0.19978E-03 15961   0.186E-01    0.292E-02
RMM:   4    -0.761928337126E+03   -0.41883E-04   -0.25780E-04 11120   0.610E-02
  127 T=   180. E= -.75935197E+03 F= -.76192834E+03 E0= -.76192834E+03  EK= 0.25764E+01 SP= 0.00E+00 SK= 0.00E+00
       N       E                     dE             d eps       ncg     rms          rms(c)
DAV:   1    -0.761917363743E+03    0.10931E-01   -0.15904E-02 32410   0.190E+00    0.837E-02
RMM:   2    -0.761919235101E+03   -0.18714E-02   -0.21062E-02 17924   0.251E-01    0.113E-01
RMM:   3    -0.761919424619E+03   -0.18952E-03   -0.24350E-03 16910   0.227E-01    0.865E-02
RMM:   4    -0.761919336951E+03    0.87668E-04   -0.75301E-04 15616   0.812E-02
  128 T=   179. E= -.75935177E+03 F= -.76191934E+03 E0= -.76191934E+03  EK= 0.25676E+01 SP= 0.00E+00 SK= 0.00E+00
       N       E                     dE             d eps       ncg     rms          rms(c)
DAV:   1    -0.761865901060E+03    0.53524E-01   -0.27137E-02 31300   0.176E+00    0.855E-02
RMM:   2    -0.761867400038E+03   -0.14990E-02   -0.17007E-02 18642   0.231E-01    0.983E-02
RMM:   3    -0.761867566602E+03   -0.16656E-03   -0.22634E-03 16327   0.209E-01    0.785E-02
RMM:   4    -0.761867572684E+03   -0.60824E-05   -0.22017E-03 20716   0.935E-02    0.386E-02
RMM:   5    -0.761867547584E+03    0.25100E-04   -0.13375E-04 10498   0.311E-02
  129 T=   175. E= -.75935075E+03 F= -.76186755E+03 E0= -.76186755E+03  EK= 0.25168E+01 SP= 0.00E+00 SK= 0.00E+00
       N       E                     dE             d eps       ncg     rms          rms(c)
DAV:   1    -0.761786794499E+03    0.80778E-01   -0.13188E-02 32240   0.176E+00    0.547E-02
RMM:   2    -0.761788167291E+03   -0.13728E-02   -0.14726E-02 18744   0.220E-01    0.959E-02
RMM:   3    -0.761788478823E+03   -0.31153E-03   -0.27225E-03 16330   0.238E-01    0.825E-02
RMM:   4    -0.761788469609E+03    0.92139E-05   -0.32589E-04 11672   0.728E-02
  130 T=   170. E= -.75935017E+03 F= -.76178847E+03 E0= -.76178847E+03  EK= 0.24383E+01 SP= 0.00E+00 SK= 0.00E+00
       N       E                     dE             d eps       ncg     rms          rms(c)
DAV:   1    -0.761699492369E+03    0.88986E-01   -0.22078E-02 31780   0.157E+00    0.101E-01
RMM:   2    -0.761700480621E+03   -0.98825E-03   -0.14625E-02 22283   0.202E-01    0.697E-02
RMM:   3    -0.761700516670E+03   -0.36050E-04   -0.13439E-03 15311   0.122E-01    0.373E-02
RMM:   4    -0.761700517014E+03   -0.34343E-06   -0.35614E-04 11789   0.657E-02
  131 T=   164. E= -.75934925E+03 F= -.76170052E+03 E0= -.76170052E+03  EK= 0.23513E+01 SP= 0.00E+00 SK= 0.00E+00
       N       E                     dE             d eps       ncg     rms          rms(c)
DAV:   1    -0.761621890647E+03    0.78626E-01   -0.19201E-02 32240   0.155E+00    0.975E-02
RMM:   2    -0.761623393357E+03   -0.15027E-02   -0.19439E-02 19330   0.254E-01    0.141E-01
RMM:   3    -0.761623629877E+03   -0.23652E-03   -0.32970E-03 16236   0.254E-01    0.108E-01
RMM:   4    -0.761623555400E+03    0.74477E-04   -0.66945E-04 14935   0.869E-02
  132 T=   159. E= -.75934823E+03 F= -.76162356E+03 E0= -.76162356E+03  EK= 0.22753E+01 SP= 0.00E+00 SK= 0.00E+00
       N       E                     dE             d eps       ncg     rms          rms(c)
[...]
       N       E                     dE             d eps       ncg     rms          rms(c)
DAV:   1    -0.742646925373E+03    0.58166E-01   -0.13452E-02 32000   0.148E+00    0.143E-01
RMM:   2    -0.742647438382E+03   -0.51301E-03   -0.97514E-03 18799   0.177E-01    0.111E-01
RMM:   3    -0.742647369095E+03    0.69287E-04   -0.18676E-03 17097   0.180E-01    0.458E-02
RMM:   4    -0.742647462400E+03   -0.93306E-04   -0.14497E-03 19468   0.853E-02    0.312E-02
RMM:   5    -0.742647442025E+03    0.20375E-04   -0.11336E-04 10262   0.293E-02
 2439 T=   228. E= -.73937547E+03 F= -.74264744E+03 E0= -.74264744E+03  EK= 0.32720E+01 SP= 0.00E+00 SK= 0.00E+00
       N       E                     dE             d eps       ncg     rms          rms(c)
DAV:   1    -0.742593692489E+03    0.53770E-01   -0.16507E-02 32340   0.150E+00    0.207E-01
RMM:   2    -0.742593626004E+03    0.66485E-04   -0.10127E-02 19327   0.184E-01    0.144E-01
RMM:   3    -0.742593371060E+03    0.25494E-03   -0.35638E-03 19119   0.207E-01    0.213E-02
RMM:   4    -0.742593543306E+03   -0.17225E-03   -0.16265E-03 18994   0.823E-02    0.388E-02
RMM:   5    -0.742593499341E+03    0.43965E-04   -0.21367E-04 10328   0.322E-02
 2440 T=   230. E= -.73928937E+03 F= -.74259350E+03 E0= -.74259350E+03  EK= 0.33041E+01 SP= 0.00E+00 SK= 0.00E+00
       N       E                     dE             d eps       ncg     rms          rms(c)
DAV:   1    -0.742540724451E+03    0.52819E-01   -0.12968E-02 31140   0.150E+00    0.138E-01
RMM:   2    -0.742541145560E+03   -0.42111E-03   -0.85321E-03 19239   0.167E-01    0.871E-02
RMM:   3    -0.742541168141E+03   -0.22581E-04   -0.16825E-03 16495   0.166E-01    0.276E-02
RMM:   4    -0.742541226543E+03   -0.58402E-04   -0.61817E-04 14902   0.697E-02
 2441 T=   233. E= -.73920283E+03 F= -.74254123E+03 E0= -.74254123E+03  EK= 0.33384E+01 SP= 0.00E+00 SK= 0.00E+00
       N       E                     dE             d eps       ncg     rms          rms(c)
DAV:   1    -0.742486698735E+03    0.54469E-01   -0.15849E-02 31870   0.152E+00    0.116E-01
RMM:   2    -0.742487390996E+03   -0.69226E-03   -0.98152E-03 18431   0.174E-01    0.711E-02
RMM:   3    -0.742487469812E+03   -0.78815E-04   -0.14379E-03 16356   0.167E-01    0.339E-02
RMM:   4    -0.742487494442E+03   -0.24630E-04   -0.49260E-04 13695   0.642E-02
 2442 T=   235. E= -.73911610E+03 F= -.74248749E+03 E0= -.74248749E+03  EK= 0.33714E+01 SP= 0.00E+00 SK= 0.00E+00
       N       E                     dE             d eps       ncg     rms          rms(c)
DAV:   1    -0.742426628637E+03    0.60841E-01   -0.16624E-02 32230   0.156E+00    0.159E-01
RMM:   2    -0.742427069196E+03   -0.44056E-03   -0.10418E-02 18558   0.181E-01    0.110E-01
RMM:   3    -0.742426997382E+03    0.71813E-04   -0.21224E-03 17909   0.186E-01    0.330E-02
RMM:   4    -0.742427140252E+03   -0.14287E-03   -0.15185E-03 19669   0.829E-02    0.362E-02
RMM:   5    -0.742427108247E+03    0.32005E-04   -0.11635E-04 10262   0.281E-02
 2443 T=   237. E= -.73902876E+03 F= -.74242711E+03 E0= -.74242711E+03  EK= 0.33984E+01 SP= 0.00E+00 SK= 0.00E+00
       N       E                     dE             d eps       ncg     rms          rms(c)
DAV:   1    -0.742356637645E+03    0.70503E-01   -0.19343E-02 31670   0.159E+00    0.214E-01
RMM:   2    -0.742356728080E+03   -0.90435E-04   -0.12167E-02 18816   0.204E-01    0.164E-01
RMM:   3    -0.742356374238E+03    0.35384E-03   -0.36375E-03 18574   0.232E-01    0.467E-02
RMM:   4    -0.742356627798E+03   -0.25356E-03   -0.29496E-03 21352   0.106E-01    0.552E-02
RMM:   5    -0.742356540823E+03    0.86975E-04   -0.25924E-04 11026   0.362E-02
 2444 T=   238. E= -.73894201E+03 F= -.74235654E+03 E0= -.74235654E+03  EK= 0.34145E+01 SP= 0.00E+00 SK= 0.00E+00
       N       E                     dE             d eps       ncg     rms          rms(c)
DAV:   1    -0.742271517132E+03    0.85111E-01   -0.16083E-02 31050   0.159E+00    0.158E-01
RMM:   2    -0.742271973249E+03   -0.45612E-03   -0.10387E-02 19271   0.181E-01    0.109E-01
RMM:   3    -0.742271927468E+03    0.45781E-04   -0.22077E-03 17986   0.186E-01    0.308E-02
RMM:   4    -0.742272045003E+03   -0.11753E-03   -0.12052E-03 18140   0.817E-02    0.277E-02
RMM:   5    -0.742272029058E+03    0.15945E-04   -0.10480E-04 10290   0.283E-02
 2445 T=   238. E= -.73885452E+03 F= -.74227203E+03 E0= -.74227203E+03  EK= 0.34175E+01 SP= 0.00E+00 SK= 0.00E+00
       N       E                     dE             d eps       ncg     rms          rms(c)
DAV:   1    -0.742171595072E+03    0.10045E+00   -0.17271E-02 31080   0.160E+00    0.136E-01
RMM:   2    -0.742172257436E+03   -0.66236E-03   -0.10723E-02 18849   0.185E-01    0.942E-02
RMM:   3    -0.742172312623E+03   -0.55187E-04   -0.20383E-03 16570   0.192E-01    0.395E-02
RMM:   4    -0.742172385484E+03   -0.72860E-04   -0.10082E-03 16942   0.795E-02    0.198E-02
RMM:   5    -0.742172386898E+03   -0.14147E-05   -0.13355E-04 10256   0.335E-02
 2446 T=   237. E= -.73876683E+03 F= -.74217239E+03 E0= -.74217239E+03  EK= 0.34056E+01 SP= 0.00E+00 SK= 0.00E+00
       N       E                     dE             d eps       ncg     rms          rms(c)
DAV:   1    -0.742056720984E+03    0.11566E+00   -0.18668E-02 31180   0.161E+00    0.166E-01
RMM:   2    -0.742057190890E+03   -0.46991E-03   -0.11115E-02 18951   0.188E-01    0.116E-01
RMM:   3    -0.742057122184E+03    0.68706E-04   -0.24482E-03 18102   0.199E-01    0.354E-02
RMM:   4    -0.742057264394E+03   -0.14221E-03   -0.15625E-03 19519   0.862E-02    0.355E-02
RMM:   5    -0.742057234716E+03    0.29678E-04   -0.12099E-04 10294   0.281E-02
 2447 T=   235. E= -.73867904E+03 F= -.74205723E+03 E0= -.74205723E+03  EK= 0.33782E+01 SP= 0.00E+00 SK= 0.00E+00
       N       E                     dE             d eps       ncg     rms          rms(c)
DAV:   1    -0.741927046603E+03    0.13022E+00   -0.18529E-02 31380   0.162E+00    0.177E-01
RMM:   2    -0.741927492887E+03   -0.44628E-03   -0.11948E-02 18918   0.196E-01    0.135E-01
RMM:   3    -0.741927326391E+03    0.16650E-03   -0.26914E-03 18329   0.206E-01    0.450E-02
RMM:   4    -0.741927512035E+03   -0.18564E-03   -0.22249E-03 20650   0.954E-02    0.459E-02
RMM:   5    -0.741927457327E+03    0.54707E-04   -0.16183E-04 10374   0.307E-02
 2448 T=   233. E= -.73859060E+03 F= -.74192746E+03 E0= -.74192746E+03  EK= 0.33369E+01 SP= 0.00E+00 SK= 0.00E+00
       N       E                     dE             d eps       ncg     rms          rms(c)
DAV:   1    -0.741785830856E+03    0.14168E+00   -0.16216E-02 31110   0.160E+00    0.169E-01
RMM:   2    -0.741786266815E+03   -0.43596E-03   -0.11016E-02 19074   0.188E-01    0.127E-01
RMM:   3    -0.741786129444E+03    0.13737E-03   -0.24821E-03 18335   0.197E-01    0.404E-02
RMM:   4    -0.741786285494E+03   -0.15605E-03   -0.18215E-03 20022   0.890E-02    0.402E-02
RMM:   5    -0.741786244479E+03    0.41015E-04   -0.13124E-04 10295   0.286E-02
 2449 T=   229. E= -.73850169E+03 F= -.74178624E+03 E0= -.74178624E+03  EK= 0.32846E+01 SP= 0.00E+00 SK= 0.00E+00
       N       E                     dE             d eps       ncg     rms          rms(c)
DAV:   1    -0.741636576438E+03    0.14971E+00   -0.15345E-02 31040   0.158E+00    0.162E-01
RMM:   2    -0.741637026233E+03   -0.44979E-03   -0.10547E-02 19056   0.185E-01    0.117E-01
RMM:   3    -0.741636944343E+03    0.81890E-04   -0.23477E-03 18040   0.196E-01    0.380E-02
RMM:   4    -0.741637082967E+03   -0.13862E-03   -0.16052E-03 19750   0.873E-02    0.361E-02
RMM:   5    -0.741637051696E+03    0.31271E-04   -0.11931E-04 10284   0.275E-02
 2450 T=   225. E= -.73841189E+03 F= -.74163705E+03 E0= -.74163705E+03  EK= 0.32252E+01 SP= 0.00E+00 SK= 0.00E+00
       N       E                     dE             d eps       ncg     rms          rms(c)
DAV:   1    -0.741486071670E+03    0.15101E+00   -0.15024E-02 31050   0.156E+00    0.162E-01
RMM:   2    -0.741486498973E+03   -0.42730E-03   -0.10329E-02 19034   0.183E-01    0.119E-01
RMM:   3    -0.741486394045E+03    0.10493E-03   -0.23097E-03 18093   0.193E-01    0.386E-02
RMM:   4    -0.741486533142E+03   -0.13910E-03   -0.16362E-03 19844   0.863E-02    0.369E-02
RMM:   5    -0.741486500004E+03    0.33138E-04   -0.11838E-04 10277   0.272E-02
 2451 T=   221. E= -.73832185E+03 F= -.74148650E+03 E0= -.74148650E+03  EK= 0.31647E+01 SP= 0.00E+00 SK= 0.00E+00
       N       E                     dE             d eps       ncg     rms          rms(c)
DAV:   1    -0.741341676548E+03    0.14486E+00   -0.14428E-02 31010   0.155E+00    0.168E-01
RMM:   2    -0.741342051292E+03   -0.37474E-03   -0.10318E-02 19101   0.183E-01    0.126E-01
RMM:   3    -0.741341889329E+03    0.16196E-03   -0.23743E-03 18316   0.190E-01    0.385E-02
RMM:   4    -0.741342035975E+03   -0.14665E-03   -0.17162E-03 19769   0.864E-02    0.383E-02
RMM:   5    -0.741341998555E+03    0.37420E-04   -0.12213E-04 10285   0.277E-02
 2452 T=   217. E= -.73823114E+03 F= -.74134200E+03 E0= -.74134200E+03  EK= 0.31109E+01 SP= 0.00E+00 SK= 0.00E+00
       N       E                     dE             d eps       ncg     rms          rms(c)
DAV:   1    -0.741209805850E+03    0.13223E+00   -0.13882E-02 31030   0.153E+00    0.167E-01
RMM:   2    -0.741210121353E+03   -0.31550E-03   -0.95820E-03 19042   0.177E-01    0.124E-01
RMM:   3    -0.741209956872E+03    0.16448E-03   -0.23264E-03 18362   0.188E-01    0.361E-02
RMM:   4    -0.741210100346E+03   -0.14347E-03   -0.16351E-03 19638   0.841E-02    0.377E-02
RMM:   5    -0.741210063952E+03    0.36394E-04   -0.11695E-04 10283   0.272E-02
 2453 T=   214. E= -.73813996E+03 F= -.74121006E+03 E0= -.74121006E+03  EK= 0.30701E+01 SP= 0.00E+00 SK= 0.00E+00
       N       E                     dE             d eps       ncg     rms          rms(c)
DAV:   1    -0.741094901694E+03    0.11520E+00   -0.12194E-02 31020   0.152E+00    0.164E-01
RMM:   2    -0.741095197640E+03   -0.29595E-03   -0.91646E-03 18935   0.174E-01    0.124E-01
RMM:   3    -0.741095033928E+03    0.16371E-03   -0.22773E-03 18248   0.188E-01    0.370E-02
RMM:   4    -0.741095176224E+03   -0.14230E-03   -0.16566E-03 19789   0.846E-02    0.376E-02
RMM:   5    -0.741095140479E+03    0.35745E-04   -0.11663E-04 10275   0.270E-02
 2454 T=   212. E= -.73804848E+03 F= -.74109514E+03 E0= -.74109514E+03  EK= 0.30467E+01 SP= 0.00E+00 SK= 0.00E+00
       N       E                     dE             d eps       ncg     rms          rms(c)
DAV:   1    -0.740998585043E+03    0.96591E-01   -0.12367E-02 31130   0.151E+00    0.164E-01
RMM:   2    -0.740998873707E+03   -0.28866E-03   -0.90986E-03 18955   0.173E-01    0.124E-01
RMM:   3    -0.740998693843E+03    0.17986E-03   -0.22046E-03 18272   0.183E-01    0.363E-02
RMM:   4    -0.740998832149E+03   -0.13831E-03   -0.16102E-03 19629   0.833E-02    0.368E-02
RMM:   5    -0.740998797688E+03    0.34461E-04   -0.11248E-04 10272   0.272E-02
 2455 T=   212. E= -.73795639E+03 F= -.74099880E+03 E0= -.74099880E+03  EK= 0.30424E+01 SP= 0.00E+00 SK= 0.00E+00
       N       E                     dE             d eps       ncg     rms          rms(c)
DAV:   1    -0.740918392061E+03    0.80440E-01   -0.11832E-02 31040   0.152E+00    0.164E-01
RMM:   2    -0.740918656404E+03   -0.26434E-03   -0.88352E-03 18957   0.171E-01    0.125E-01
RMM:   3    -0.740918473502E+03    0.18290E-03   -0.21891E-03 18275   0.182E-01    0.370E-02
RMM:   4    -0.740918609015E+03   -0.13551E-03   -0.15975E-03 19532   0.830E-02    0.363E-02
RMM:   5    -0.740918575518E+03    0.33497E-04   -0.11066E-04 10270   0.273E-02
 2456 T=   213. E= -.73786372E+03 F= -.74091858E+03 E0= -.74091858E+03  EK= 0.30549E+01 SP= 0.00E+00 SK= 0.00E+00
       N       E                     dE             d eps       ncg     rms          rms(c)
DAV:   1    -0.740849888449E+03    0.68721E-01   -0.11516E-02 31030   0.153E+00    0.164E-01
RMM:   2    -0.740850171564E+03   -0.28312E-03   -0.90242E-03 18833   0.174E-01    0.126E-01
RMM:   3    -0.740849983749E+03    0.18781E-03   -0.21123E-03 18147   0.182E-01    0.406E-02
RMM:   4    -0.740850118820E+03   -0.13507E-03   -0.16934E-03 19876   0.843E-02    0.377E-02
RMM:   5    -0.740850083568E+03    0.35252E-04   -0.11363E-04 10281   0.281E-02
 2457 T=   215. E= -.73777052E+03 F= -.74085008E+03 E0= -.74085008E+03  EK= 0.30796E+01 SP= 0.00E+00 SK= 0.00E+00
       N       E                     dE             d eps       ncg     rms          rms(c)
DAV:   1    -0.740786514808E+03    0.63604E-01   -0.11132E-02 31210   0.155E+00    0.167E-01
RMM:   2    -0.740786802814E+03   -0.28801E-03   -0.93217E-03 18699   0.176E-01    0.130E-01
RMM:   3    -0.740786600171E+03    0.20264E-03   -0.21447E-03 18128   0.185E-01    0.443E-02
RMM:   4    -0.740786737264E+03   -0.13709E-03   -0.18141E-03 20143   0.871E-02    0.388E-02
RMM:   5    -0.740786700082E+03    0.37182E-04   -0.12235E-04 10286   0.299E-02
 2458 T=   217. E= -.73767632E+03 F= -.74078670E+03 E0= -.74078670E+03  EK= 0.31104E+01 SP= 0.00E+00 SK= 0.00E+00
       N       E                     dE             d eps       ncg     rms          rms(c)
DAV:   1    -0.740720253181E+03    0.66484E-01   -0.10876E-02 31140   0.157E+00    0.165E-01
RMM:   2    -0.740720549073E+03   -0.29589E-03   -0.92023E-03 18805   0.177E-01    0.127E-01
RMM:   3    -0.740720381185E+03    0.16789E-03   -0.21965E-03 17987   0.190E-01    0.450E-02
RMM:   4    -0.740720520184E+03   -0.13900E-03   -0.18351E-03 20270   0.884E-02    0.389E-02
RMM:   5    -0.740720483880E+03    0.36304E-04   -0.11901E-04 10244   0.284E-02
 2459 T=   219. E= -.73758151E+03 F= -.74072048E+03 E0= -.74072048E+03  EK= 0.31390E+01 SP= 0.00E+00 SK= 0.00E+00
       N       E                     dE             d eps       ncg     rms          rms(c)
DAV:   1    -0.740644544773E+03    0.75975E-01   -0.10964E-02 31290   0.159E+00    0.164E-01
RMM:   2    -0.740644872154E+03   -0.32738E-03   -0.94979E-03 18800   0.180E-01    0.127E-01
RMM:   3    -0.740644708292E+03    0.16386E-03   -0.21733E-03 17853   0.190E-01    0.467E-02
RMM:   4    -0.740644841898E+03   -0.13361E-03   -0.18378E-03 20261   0.888E-02    0.382E-02
RMM:   5    -0.740644806140E+03    0.35758E-04   -0.12392E-04 10271   0.293E-02
 2460 T=   220. E= -.73748582E+03 F= -.74064481E+03 E0= -.74064481E+03  EK= 0.31590E+01 SP= 0.00E+00 SK= 0.00E+00
       N       E                     dE             d eps       ncg     rms          rms(c)
DAV:   1    -0.740555158069E+03    0.89684E-01   -0.11316E-02 31270   0.161E+00    0.162E-01
RMM:   2    -0.740555502819E+03   -0.34475E-03   -0.94492E-03 18844   0.178E-01    0.122E-01
RMM:   3    -0.740555352256E+03    0.15056E-03   -0.20521E-03 17885   0.183E-01    0.423E-02
RMM:   4    -0.740555475690E+03   -0.12343E-03   -0.16179E-03 19842   0.848E-02    0.350E-02
RMM:   5    -0.740555445562E+03    0.30128E-04   -0.11357E-04 10233   0.284E-02
 2461 T=   221. E= -.73738832E+03 F= -.74055545E+03 E0= -.74055545E+03  EK= 0.31671E+01 SP= 0.00E+00 SK= 0.00E+00
       N       E                     dE             d eps       ncg     rms          rms(c)
DAV:   1    -0.740452111305E+03    0.10336E+00   -0.11460E-02 31330   0.162E+00    0.165E-01
RMM:   2    -0.740452419080E+03   -0.30777E-03   -0.93787E-03 18675   0.179E-01    0.122E-01
RMM:   3    -0.740452278152E+03    0.14093E-03   -0.21996E-03 17913   0.192E-01    0.402E-02
RMM:   4    -0.740452415774E+03   -0.13762E-03   -0.16917E-03 20177   0.859E-02    0.370E-02
RMM:   5    -0.740452381922E+03    0.33852E-04   -0.11823E-04 10254   0.277E-02
 2462 T=   220. E= -.73729073E+03 F= -.74045238E+03 E0= -.74045238E+03  EK= 0.31617E+01 SP= 0.00E+00 SK= 0.00E+00
       N       E                     dE             d eps       ncg     rms          rms(c)
DAV:   1    -0.740335686501E+03    0.11673E+00   -0.11768E-02 31270   0.163E+00    0.166E-01
RMM:   2    -0.740336025716E+03   -0.33922E-03   -0.97476E-03 19064   0.181E-01    0.125E-01
RMM:   3    -0.740335873482E+03    0.15223E-03   -0.22595E-03 18142   0.189E-01    0.407E-02
RMM:   4    -0.740336003044E+03   -0.12956E-03   -0.16088E-03 19654   0.848E-02    0.339E-02
RMM:   5    -0.740335972193E+03    0.30851E-04   -0.12343E-04 10276   0.280E-02
 2463 T=   219. E= -.73719172E+03 F= -.74033597E+03 E0= -.74033597E+03  EK= 0.31442E+01 SP= 0.00E+00 SK= 0.00E+00
       N       E                     dE             d eps       ncg     rms          rms(c)
DAV:   1    -0.740211883757E+03    0.12412E+00   -0.11729E-02 31450   0.162E+00    0.162E-01
RMM:   2    -0.740212173088E+03   -0.28933E-03   -0.89922E-03 18944   0.175E-01    0.113E-01
RMM:   3    -0.740212084986E+03    0.88102E-04   -0.22239E-03 18102   0.190E-01    0.314E-02
RMM:   4    -0.740212202733E+03   -0.11775E-03   -0.12734E-03 18604   0.806E-02    0.281E-02
RMM:   5    -0.740212184276E+03    0.18457E-04   -0.10948E-04 10148   0.281E-02
 2464 T=   217. E= -.73709199E+03 F= -.74021218E+03 E0= -.74021218E+03  EK= 0.31202E+01 SP= 0.00E+00 SK= 0.00E+00
       N       E                     dE             d eps       ncg     rms          rms(c)
DAV:   1    -0.740087063880E+03    0.12514E+00   -0.12129E-02 31580   0.162E+00    0.163E-01
RMM:   2    -0.740087380360E+03   -0.31648E-03   -0.92542E-03 19121   0.176E-01    0.118E-01
RMM:   3    -0.740087267518E+03    0.11284E-03   -0.22820E-03 18239   0.190E-01    0.329E-02
RMM:   4    -0.740087389048E+03   -0.12153E-03   -0.13490E-03 18961   0.811E-02    0.303E-02
RMM:   5    -0.740087366291E+03    0.22757E-04   -0.10904E-04 10189   0.267E-02
 2465 T=   216. E= -.73699157E+03 F= -.74008737E+03 E0= -.74008737E+03  EK= 0.30958E+01 SP= 0.00E+00 SK= 0.00E+00
       N       E                     dE             d eps       ncg     rms          rms(c)
DAV:   1    -0.739966523360E+03    0.12087E+00   -0.12503E-02 31570   0.162E+00    0.172E-01
RMM:   2    -0.739966786255E+03   -0.26289E-03   -0.95182E-03 19260   0.179E-01    0.126E-01
RMM:   3    -0.739966631922E+03    0.15433E-03   -0.25235E-03 18594   0.194E-01    0.325E-02
RMM:   4    -0.739966771260E+03   -0.13934E-03   -0.14941E-03 19263   0.824E-02    0.330E-02
RMM:   5    -0.739966741031E+03    0.30229E-04   -0.12846E-04 10210   0.277E-02
 2466 T=   214. E= -.73689046E+03 F= -.73996674E+03 E0= -.73996674E+03  EK= 0.30763E+01 SP= 0.00E+00 SK= 0.00E+00
       N       E                     dE             d eps       ncg     rms          rms(c)
DAV:   1    -0.739854414672E+03    0.11236E+00   -0.12156E-02 31420   0.161E+00    0.162E-01
RMM:   2    -0.739854694218E+03   -0.27955E-03   -0.88868E-03 19255   0.174E-01    0.115E-01
RMM:   3    -0.739854597303E+03    0.96915E-04   -0.22738E-03 18336   0.188E-01    0.292E-02
RMM:   4    -0.739854711500E+03   -0.11420E-03   -0.11879E-03 18127   0.795E-02    0.266E-02
RMM:   5    -0.739854694781E+03    0.16719E-04   -0.10618E-04 10218   0.278E-02
 2467 T=   214. E= -.73678876E+03 F= -.73985469E+03 E0= -.73985469E+03  EK= 0.30659E+01 SP= 0.00E+00 SK= 0.00E+00
       N       E                     dE             d eps       ncg     rms          rms(c)
DAV:   1    -0.739754647686E+03    0.10006E+00   -0.12306E-02 31580   0.161E+00    0.163E-01
RMM:   2    -0.739754940926E+03   -0.29324E-03   -0.90658E-03 19336   0.174E-01    0.118E-01
RMM:   3    -0.739754831539E+03    0.10939E-03   -0.23575E-03 18426   0.190E-01    0.302E-02
RMM:   4    -0.739754952902E+03   -0.12136E-03   -0.12807E-03 18595   0.802E-02    0.291E-02
RMM:   5    -0.739754932073E+03    0.20829E-04   -0.10793E-04 10251   0.266E-02
 2468 T=   214. E= -.73668693E+03 F= -.73975493E+03 E0= -.73975493E+03  EK= 0.30680E+01 SP= 0.00E+00 SK= 0.00E+00
       N       E                     dE             d eps       ncg     rms          rms(c)
DAV:   1    -0.739668390401E+03    0.86563E-01   -0.13409E-02 31640   0.160E+00    0.172E-01
RMM:   2    -0.739668644091E+03   -0.25369E-03   -0.94428E-03 19482   0.178E-01    0.127E-01
RMM:   3    -0.739668494200E+03    0.14989E-03   -0.25954E-03 18745   0.194E-01    0.303E-02
